12
Lattice="100.0 0.0 0.0 0.0 100.0 0.0 0.0 0.0 100.0" Properties=species:S:1:pos:R:3 Energy=-145425.57581165363 Energy_pyscf=-145425.50871938234 pbc="F F F" Energy_pyscf_og=-145425.39390255423
C       49.00046286      48.99209620      49.73455664
C       48.62129122      50.26190975      50.19200308
C       49.56250193      51.28192196      50.43051718
C       50.99632576      51.02272333      50.35936810
C       51.35069365      49.68695811      49.89955778
C       50.36263112      48.77088042      49.60700227
H       48.19657779      48.37522984      49.27793610
H       47.60946834      50.47399203      50.06223366
H       49.31773247      52.27208459      50.66990041
H       51.76853392      51.74536336      50.59624466
H       52.43455219      49.51003137      49.66506090
H       50.68636592      47.72214440      49.33754629
