12
Lattice="100.0 0.0 0.0 0.0 100.0 0.0 0.0 0.0 100.0" Properties=species:S:1:pos:R:3 Energy=-145430.06387045933 Energy_pyscf=-145429.32502219253 pbc="F F F" Energy_pyscf_og=-145429.88553681257
C       49.01863032      48.88995342      49.88548968
C       48.61356083      50.16225251      50.31821945
C       49.55929997      51.12533833      50.60025576
C       50.93565247      50.87789619      50.50692737
C       51.31867770      49.55497108      50.15782408
C       50.36346091      48.64842139      49.74686205
H       48.25434895      48.13828455      49.59722944
H       47.58942713      50.37764091      50.46030983
H       49.16793767      52.14317339      50.79402919
H       51.76029996      51.50195869      50.91830657
H       52.38692256      49.21294660      50.19067855
H       50.70978835      47.83191908      49.07947665
