12
Lattice="100.0 0.0 0.0 0.0 100.0 0.0 0.0 0.0 100.0" Properties=species:S:1:pos:R:3 Energy=-145431.87936632906 Energy_pyscf=-145431.45229714116 pbc="F F F" Energy_pyscf_og=-145431.69633241766
C       49.01693037      49.13932727      49.49788649
C       48.57454983      50.35870623      49.99503370
C       49.50873900      51.34932338      50.33796615
C       50.85053308      51.07138439      50.10869273
C       51.32467326      49.79517302      49.84265075
C       50.39573894      48.82650514      49.47848169
H       48.29968731      48.31380156      49.29185331
H       47.47753257      50.56567293      50.06356307
H       49.13732689      52.28868560      50.67718779
H       51.56320469      51.91248027      50.13133854
H       52.45576122      49.64473818      49.86382712
H       50.62548379      47.77801896      49.41328228
