12
Lattice="100.0 0.0 0.0 0.0 100.0 0.0 0.0 0.0 100.0" Properties=species:S:1:pos:R:3 Energy=-145430.98351235935 Energy_pyscf=-145430.33411563988 pbc="F F F" Energy_pyscf_og=-145430.80050273784
C       49.06360702      49.03557137      49.67432265
C       48.63958736      50.30996020      49.99067939
C       49.60811062      51.28590013      50.31921028
C       50.95679431      51.00053883      50.36372260
C       51.33296857      49.72613226      49.80892822
C       50.39320650      48.75885778      49.54981062
H       48.31514598      48.32074211      49.45878629
H       47.58591141      50.56206399      50.11932391
H       49.25657738      52.24033725      50.73699036
H       51.64455133      51.72100643      50.79125531
H       52.40002258      49.39981730      49.88576610
H       50.61103523      47.78909498      49.17399063
