12
Lattice="100.0 0.0 0.0 0.0 100.0 0.0 0.0 0.0 100.0" Properties=species:S:1:pos:R:3 Energy=-145424.74938309006 Energy_pyscf=-145424.615298153 pbc="F F F" Energy_pyscf_og=-145424.5651680996
C       48.91899458      48.97464690      49.80712114
C       48.59984649      50.28391362      50.17917815
C       49.48721001      51.27260724      50.44649431
C       50.89806390      50.93954128      50.39839818
C       51.26663490      49.66438934      49.96258351
C       50.30020903      48.69791083      49.63052003
H       48.25225862      48.17707491      49.78374701
H       47.50865117      50.41638668      50.32430142
H       49.06151382      52.22731199      50.76757407
H       51.66432894      51.72486047      50.68152736
H       52.45563716      49.55432798      49.94800544
H       50.70114878      47.79283590      49.32688149
