12
Lattice="100.0 0.0 0.0 0.0 100.0 0.0 0.0 0.0 100.0" Properties=species:S:1:pos:R:3 Energy=-145433.90946068175 Energy_pyscf=-145434.13897774767 pbc="F F F" Energy_pyscf_og=-145433.72570512677
C       49.01155681      49.12046664      49.59806801
C       48.57896136      50.35296057      49.97798069
C       49.55404067      51.31427338      50.37721506
C       50.92512105      51.01145698      50.24982088
C       51.34559215      49.77094785      49.79449630
C       50.37736526      48.78758497      49.52953309
H       48.22073166      48.31442209      49.34997028
H       47.50365744      50.53984433      50.03293356
H       49.15914342      52.19642489      50.88009517
H       51.62569019      51.77517438      50.56143289
H       52.40589989      49.61849333      49.72856212
H       50.66793525      47.79117585      49.10732286
