12
Lattice="100.0 0.0 0.0 0.0 100.0 0.0 0.0 0.0 100.0" Properties=species:S:1:pos:R:3 Energy=-145433.71877010516 Energy_pyscf=-145433.78208950345 pbc="F F F" Energy_pyscf_og=-145433.5349648842
C       49.01184665      48.98791943      49.83225390
C       48.55607810      50.29954169      50.20082047
C       49.49684404      51.28817814      50.45869952
C       50.89264310      50.95497522      50.41650729
C       51.34638175      49.70440455      49.97323090
C       50.37465383      48.68446889      49.62846859
H       48.24227269      48.17684918      49.81167462
H       47.45690309      50.46070446      50.30872606
H       49.04116306      52.26271311      50.72789383
H       51.59681052      51.74980372      50.68891173
H       52.45256270      49.49309335      49.95010930
H       50.65531098      47.72462128      49.23455742
