12
Lattice="100.0 0.0 0.0 0.0 100.0 0.0 0.0 0.0 100.0" Properties=species:S:1:pos:R:3 Energy=-145426.5926317516 Energy_pyscf=-145426.736237669 pbc="F F F" Energy_pyscf_og=-145426.41045750846
C       48.97435388      48.91682456      49.92132323
C       48.61488353      50.18041819      50.31129200
C       49.56903667      51.17484188      50.54590065
C       50.95202323      50.82418593      50.51420911
C       51.37171339      49.53359062      50.20905910
C       50.37551478      48.69142758      49.67773286
H       48.26167167      48.20525476      49.63762820
H       47.48513330      50.33163620      50.42802186
H       49.18984325      52.13205554      50.85757413
H       51.71262851      51.52520550      50.87642796
H       52.45198027      49.17375490      50.16378991
H       50.73928548      47.79837049      49.11702314
