12
Lattice="100.0 0.0 0.0 0.0 100.0 0.0 0.0 0.0 100.0" Properties=species:S:1:pos:R:3 Energy=-145429.5942681546 Energy_pyscf=-145429.20761830473 pbc="F F F" Energy_pyscf_og=-145429.4134234087
C       48.98997082      49.01815780      49.78799738
C       48.57453700      50.32105868      50.17152250
C       49.52019526      51.24985610      50.47064509
C       50.87840814      50.93328149      50.44780088
C       51.33636953      49.69141766      50.00712840
C       50.36594779      48.69744166      49.60636818
H       48.27374351      48.19538111      49.83194047
H       47.49722314      50.46029700      50.33695154
H       49.05530040      52.24640720      50.72469590
H       51.55680716      51.72855841      50.64236704
H       52.41703194      49.49424802      49.92070713
H       50.69171308      47.77248836      49.27950031
