12
Lattice="100.0 0.0 0.0 0.0 100.0 0.0 0.0 0.0 100.0" Properties=species:S:1:pos:R:3 Energy=-145428.10208592642 Energy_pyscf=-145427.68335420373 pbc="F F F" Energy_pyscf_og=-145427.9180783256
C       49.08977168      48.96335256      49.64739474
C       48.66648208      50.30573074      50.07085482
C       49.62491582      51.33038502      50.37660184
C       50.99930191      50.96327914      50.30932680
C       51.37532206      49.63239677      49.98048447
C       50.43681582      48.66810667      49.58398138
H       48.38678520      48.21251678      49.26624564
H       47.66557219      50.63087768      50.09934752
H       49.26110564      52.25018050      50.84856252
H       51.75608574      51.64913663      50.56522778
H       52.36065123      49.38191447      49.77237784
H       50.83079024      47.74520457      49.12628279
