12
Lattice="100.0 0.0 0.0 0.0 100.0 0.0 0.0 0.0 100.0" Properties=species:S:1:pos:R:3 Energy=-145431.4118651519 Energy_pyscf=-145431.1709603315 pbc="F F F" Energy_pyscf_og=-145431.23081075496
C       49.04884147      49.09387710      49.76273656
C       48.60238183      50.37820896      50.09384188
C       49.53890438      51.34180862      50.46715451
C       50.89542428      51.02613918      50.35954182
C       51.27837945      49.70717320      49.93347251
C       50.39860475      48.70821390      49.63372126
H       48.23884462      48.45359558      49.34656617
H       47.58113587      50.68981167      49.91146960
H       49.16533298      52.30708364      50.78985765
H       51.60244995      51.83652944      50.58108933
H       52.34069458      49.47571017      49.87935681
H       50.68031808      47.71192953      49.20994315
