12
Lattice="100.0 0.0 0.0 0.0 100.0 0.0 0.0 0.0 100.0" Properties=species:S:1:pos:R:3 Energy=-145434.0244439942 Energy_pyscf=-145434.22280347848 pbc="F F F" Energy_pyscf_og=-145433.83723035862
C       49.04319940      49.00575333      49.80361197
C       48.62176056      50.28846828      50.18762693
C       49.57403965      51.24945408      50.55056717
C       50.95983785      50.91533418      50.44947608
C       51.34748420      49.63557958      50.02140942
C       50.39753163      48.67055983      49.70652977
H       48.23234570      48.29661408      49.49627839
H       47.55414083      50.46143191      50.15464231
H       49.22350439      52.22339685      50.79552987
H       51.75828948      51.66865693      50.66354308
H       52.41539313      49.21461259      49.96823402
H       50.66361086      47.71284007      49.23844550
