12
Lattice="100.0 0.0 0.0 0.0 100.0 0.0 0.0 0.0 100.0" Properties=species:S:1:pos:R:3 Energy=-145428.20135906478 Energy_pyscf=-145428.1732084906 pbc="F F F" Energy_pyscf_og=-145428.01953426888
C       49.08282428      49.06739004      49.50943191
C       48.66647986      50.32817996      49.76979813
C       49.60584192      51.26939195      50.19433674
C       51.02587206      50.99091725      50.09789795
C       51.39448132      49.75829808      49.66151667
C       50.40707886      48.76786824      49.40049093
H       48.40489506      48.18696603      49.45430281
H       47.57581638      50.49645536      49.88719012
H       49.37565145      52.24529281      50.62103669
H       51.76578072      51.79110522      50.24988568
H       52.46900563      49.44712477      49.52185236
H       50.70293255      47.68619350      49.41578123
