12
Lattice="100.0 0.0 0.0 0.0 100.0 0.0 0.0 0.0 100.0" Properties=species:S:1:pos:R:3 Energy=-145432.1502604785 Energy_pyscf=-145432.06963931414 pbc="F F F" Energy_pyscf_og=-145431.96643257953
C       49.00545515      48.99928432      49.80933331
C       48.55635004      50.30449348      50.12772992
C       49.47995486      51.28607986      50.44509240
C       50.86896655      50.92073013      50.45340284
C       51.31544328      49.66423176      49.94605607
C       50.37343498      48.68822449      49.63030310
H       48.26379141      48.17905945      49.80601881
H       47.51891890      50.48121039      50.34735220
H       49.05755833      52.26444776      50.74854757
H       51.59994942      51.74197350      50.66273934
H       52.42165618      49.52746046      49.95153513
H       50.68135386      47.74494463      49.25905209
