12
Lattice="100.0 0.0 0.0 0.0 100.0 0.0 0.0 0.0 100.0" Properties=species:S:1:pos:R:3 Energy=-145433.0151281251 Energy_pyscf=-145432.93907523763 pbc="F F F" Energy_pyscf_og=-145432.83271657478
C       49.02599978      48.99162094      49.81749184
C       48.57324487      50.25602414      50.21919059
C       49.51198639      51.28453030      50.48527022
C       50.89031165      50.96466688      50.41025316
C       51.30513363      49.70401082      49.98498396
C       50.34239151      48.74041068      49.67710511
H       48.27206445      48.17835170      49.80424244
H       47.48737238      50.42116379      50.29066963
H       49.01370936      52.25744095      50.71173739
H       51.63647712      51.72307348      50.67562655
H       52.42453407      49.46573888      49.91786993
H       50.65553073      47.80343587      49.24683626
