12
Lattice="100.0 0.0 0.0 0.0 100.0 0.0 0.0 0.0 100.0" Properties=species:S:1:pos:R:3 Energy=-145430.83389783883 Energy_pyscf=-145430.46051265395 pbc="F F F" Energy_pyscf_og=-145430.65064324712
C       49.00318728      48.98473274      49.82165853
C       48.59069233      50.30322170      50.20839987
C       49.50227118      51.33056205      50.47529346
C       50.87228553      50.95519807      50.41252596
C       51.31988183      49.69202350      49.95217548
C       50.34491876      48.67105413      49.67259983
H       48.29121037      48.15361750      49.75500061
H       47.51615377      50.51950223      50.33681575
H       48.98935505      52.23530738      50.75344795
H       51.58080115      51.68948986      50.65134600
H       52.45660546      49.50384483      49.92605083
H       50.69438380      47.71156624      49.27409229
