12
Lattice="100.0 0.0 0.0 0.0 100.0 0.0 0.0 0.0 100.0" Properties=species:S:1:pos:R:3 Energy=-145435.66651354567 Energy_pyscf=-145435.61689261402 pbc="F F F" Energy_pyscf_og=-145435.48062003963
C       49.07893838      49.08985638      49.57199124
C       48.63325713      50.34537545      50.00761168
C       49.58747407      51.34147626      50.28944467
C       50.94045656      51.03098802      50.13061194
C       51.35085285      49.74264683      49.79186016
C       50.39705826      48.75738310      49.47295608
H       48.29914857      48.32753430      49.39345222
H       47.56452583      50.47287750      50.24192398
H       49.24027114      52.31436267      50.68046373
H       51.62899664      51.83401994      50.32126551
H       52.38727451      49.49880558      49.74407122
H       50.63940454      47.68871536      49.26483946
