12
Lattice="100.0 0.0 0.0 0.0 100.0 0.0 0.0 0.0 100.0" Properties=species:S:1:pos:R:3 Energy=-145427.86127134133 Energy_pyscf=-145426.57458826524 pbc="F F F" Energy_pyscf_og=-145427.67777004724
C       49.00242118      49.03447002      49.81643786
C       48.55552231      50.31354141      50.15414065
C       49.47331590      51.27748644      50.40959637
C       50.82567126      50.96954728      50.43033995
C       51.35734774      49.66845151      49.98128739
C       50.34050397      48.72878041      49.59857375
H       48.27534028      48.19005534      49.75465905
H       47.54381515      50.43731914      50.36764507
H       49.02433002      52.22644755      50.78455777
H       51.66070538      51.67854035      50.66092971
H       52.43561456      49.52439852      49.94102408
H       50.65493518      47.72561115      49.35888450
