12
Lattice="100.0 0.0 0.0 0.0 100.0 0.0 0.0 0.0 100.0" Properties=species:S:1:pos:R:3 Energy=-145429.82167540237 Energy_pyscf=-145430.0986861144 pbc="F F F" Energy_pyscf_og=-145429.6365892388
C       48.96999062      48.88899025      49.91466345
C       48.61633408      50.16551855      50.34506282
C       49.54629740      51.12895647      50.58042676
C       50.95825073      50.84504174      50.56019270
C       51.34835248      49.55669487      50.18802836
C       50.35824305      48.66130211      49.71552420
H       48.28475632      48.17799333      49.56144207
H       47.57768555      50.43502360      50.42187179
H       49.15496441      52.13413575      50.84088586
H       51.75862346      51.50860170      50.87818436
H       52.44506321      49.25555344      50.15489108
H       50.70826374      47.75242651      49.12177173
