12
Lattice="100.0 0.0 0.0 0.0 100.0 0.0 0.0 0.0 100.0" Properties=species:S:1:pos:R:3 Energy=-145432.34111060252 Energy_pyscf=-145432.01314983596 pbc="F F F" Energy_pyscf_og=-145432.15712183065
C       49.05230851      49.02735312      49.48131304
C       48.67972760      50.30728736      49.85005797
C       49.65819939      51.29314340      50.16870937
C       50.98668430      50.99581873      50.10165281
C       51.41215569      49.71646129      49.66516502
C       50.44970991      48.73125305      49.39808656
H       48.38576565      48.19309049      49.44564422
H       47.56358717      50.53334248      49.88538155
H       49.36887384      52.24105968      50.59624421
H       51.76136365      51.80317490      50.24845084
H       52.49024015      49.49991661      49.53315742
H       50.69188773      47.67206891      49.38800906
