12
Lattice="100.0 0.0 0.0 0.0 100.0 0.0 0.0 0.0 100.0" Properties=species:S:1:pos:R:3 Energy=-145429.9851787664 Energy_pyscf=-145429.860747736 pbc="F F F" Energy_pyscf_og=-145429.79994611308
C       48.99320047      49.03368778      49.81845219
C       48.56142426      50.31102680      50.19411942
C       49.47184413      51.28153423      50.41647734
C       50.84436476      50.91869406      50.43273250
C       51.32776984      49.66711590      49.99349305
C       50.36947765      48.71201045      49.61779992
H       48.29513329      48.21363436      49.81524808
H       47.49813517      50.42057486      50.33112522
H       49.03871347      52.30624214      50.78815615
H       51.58244640      51.68760591      50.65020493
H       52.43460467      49.50286273      49.95525843
H       50.70815208      47.73777585      49.28324479
