12
Lattice="100.0 0.0 0.0 0.0 100.0 0.0 0.0 0.0 100.0" Properties=species:S:1:pos:R:3 Energy=-145433.6268407403 Energy_pyscf=-145433.43566607888 pbc="F F F" Energy_pyscf_og=-145433.4465174662
C       48.97982871      49.11600173      49.53141217
C       48.57435428      50.36988164      49.99240540
C       49.54081358      51.36324038      50.28389670
C       50.89860765      51.10696623      50.14581020
C       51.33223479      49.81885045      49.81617132
C       50.36933683      48.85691225      49.52252473
H       48.27577309      48.31464457      49.30215263
H       47.51028196      50.51128860      50.05195720
H       49.11427394      52.31356739      50.68771631
H       51.60001708      51.93435028      50.16474593
H       52.43881673      49.60532111      49.85484114
H       50.63845290      47.76055077      49.37047544
