12
Lattice="100.0 0.0 0.0 0.0 100.0 0.0 0.0 0.0 100.0" Properties=species:S:1:pos:R:3 Energy=-145436.16820853675 Energy_pyscf=-145436.0106504451 pbc="F F F" Energy_pyscf_og=-145435.98597069937
C       48.98145981      49.10027067      49.56432476
C       48.56239851      50.33660141      49.99195433
C       49.55114810      51.28962772      50.38309415
C       50.90185681      51.01041828      50.26076882
C       51.34088683      49.75589276      49.77725788
C       50.36862466      48.78842058      49.53266268
H       48.23528610      48.30789126      49.32115979
H       47.51679044      50.55389278      50.06823685
H       49.16035680      52.23101521      50.82158484
H       51.65696627      51.79323215      50.57835313
H       52.43094779      49.59037394      49.73465324
H       50.68213799      47.83670526      49.13964870
