12
Lattice="100.0 0.0 0.0 0.0 100.0 0.0 0.0 0.0 100.0" Properties=species:S:1:pos:R:3 Energy=-145433.44950451786 Energy_pyscf=-145432.94877213181 pbc="F F F" Energy_pyscf_og=-145433.26467552665
C       49.11375053      49.01224754      49.66062456
C       48.73187202      50.30653203      50.10266412
C       49.65554995      51.25476430      50.42960122
C       51.04279620      50.93242552      50.32499852
C       51.41399509      49.69825081      49.91191685
C       50.48009353      48.69572202      49.59527111
H       48.42883080      48.25993085      49.38342227
H       47.62582687      50.40464770      50.13094944
H       49.31682500      52.26786399      50.75509340
H       51.81353044      51.62302138      50.70706382
H       52.42826863      49.37553240      49.80895579
H       50.75121284      47.70494479      49.21014174
