12
Lattice="100.0 0.0 0.0 0.0 100.0 0.0 0.0 0.0 100.0" Properties=species:S:1:pos:R:3 Energy=-145432.95076124728 Energy_pyscf=-145432.78155353427 pbc="F F F" Energy_pyscf_og=-145432.7668749132
C       49.04871048      49.01840758      49.72717728
C       48.63333091      50.28361492      50.18573803
C       49.55427898      51.29072722      50.41769966
C       50.93369072      50.93181044      50.38550119
C       51.34304876      49.66728445      49.97401838
C       50.36770317      48.73056040      49.62945329
H       48.22979331      48.28301213      49.38633471
H       47.60417934      50.44243739      50.20890560
H       49.24072511      52.30899506      50.73391650
H       51.62750669      51.71187424      50.63021170
H       52.38723160      49.34820064      49.85151796
H       50.61407082      47.71748664      49.27798825
