12
Lattice="100.0 0.0 0.0 0.0 100.0 0.0 0.0 0.0 100.0" Properties=species:S:1:pos:R:3 Energy=-145430.0388000615 Energy_pyscf=-145430.44342248008 pbc="F F F" Energy_pyscf_og=-145429.85822631553
C       49.08296220      49.09718700      49.53939727
C       48.62686263      50.33607778      49.94215464
C       49.54565073      51.32961444      50.32738220
C       50.90416338      51.02435308      50.14751253
C       51.33937088      49.72427737      49.82227078
C       50.42930550      48.75593328      49.41633771
H       48.31234095      48.35243126      49.42145898
H       47.56335920      50.47560031      50.27729481
H       49.27728292      52.33721965      50.68770752
H       51.63507387      51.82122386      50.28360062
H       52.44746504      49.52862147      49.75637920
H       50.58530052      47.70340038      49.29995825
