12
Lattice="100.0 0.0 0.0 0.0 100.0 0.0 0.0 0.0 100.0" Properties=species:S:1:pos:R:3 Energy=-145430.02989312928 Energy_pyscf=-145430.90576059176 pbc="F F F" Energy_pyscf_og=-145429.8455597256
C       49.06220730      49.04146995      49.53091758
C       48.66394987      50.32284546      49.84007163
C       49.62398643      51.26738949      50.17073865
C       51.01210795      50.99200449      50.13368524
C       51.42737999      49.76605337      49.64205890
C       50.41176868      48.79351279      49.43732218
H       48.34263066      48.20496838      49.42109861
H       47.58988218      50.45294623      49.88244397
H       49.35456712      52.24533726      50.57718143
H       51.81179428      51.79690576      50.25145383
H       52.45007038      49.40194099      49.51601536
H       50.74665278      47.73418730      49.35789728
