12
Lattice="100.0 0.0 0.0 0.0 100.0 0.0 0.0 0.0 100.0" Properties=species:S:1:pos:R:3 Energy=-145432.65537005482 Energy_pyscf=-145432.4896523303 pbc="F F F" Energy_pyscf_og=-145432.46755642793
C       49.02549429      49.06048277      49.59477165
C       48.63009261      50.33961223      49.93126142
C       49.57488798      51.25712230      50.27584160
C       50.93753892      50.98381442      50.19512121
C       51.37121100      49.74388730      49.77399052
C       50.37965548      48.77209174      49.48229481
H       48.31018012      48.20817679      49.43908069
H       47.60207807      50.52596990      50.02703432
H       49.19917318      52.25932724      50.63644367
H       51.72153015      51.77884710      50.33376322
H       52.38551708      49.41821075      49.62831189
H       50.68812523      47.74261994      49.33768838
