12
Lattice="100.0 0.0 0.0 0.0 100.0 0.0 0.0 0.0 100.0" Properties=species:S:1:pos:R:3 Energy=-145431.44309833282 Energy_pyscf=-145431.29284839053 pbc="F F F" Energy_pyscf_og=-145431.25928118348
C       49.02222772      49.08353847      49.42597412
C       48.63461317      50.39498808      49.78934937
C       49.61679606      51.31131038      50.20730535
C       51.01419423      51.07505038      50.01647947
C       51.38485384      49.80669714      49.65086006
C       50.38838056      48.84639254      49.39530551
H       48.29386116      48.32151960      49.28183593
H       47.53864786      50.64148917      49.88769500
H       49.29145921      52.22806919      50.65158585
H       51.80422007      51.84387233      50.28243498
H       52.39444814      49.38034803      49.44690436
H       50.67850853      47.81230102      49.21374706
