12
Lattice="100.0 0.0 0.0 0.0 100.0 0.0 0.0 0.0 100.0" Properties=species:S:1:pos:R:3 Energy=-145424.06186610926 Energy_pyscf=-145424.01122166513 pbc="F F F" Energy_pyscf_og=-145423.8866426855
C       49.04322402      49.01359742      49.69341464
C       48.54663417      50.35660263      50.11634586
C       49.53989875      51.26398972      50.44892721
C       50.93348990      51.01651387      50.33602828
C       51.37680245      49.64780818      50.05222573
C       50.38332325      48.75838040      49.65000978
H       48.29077994      48.33946359      49.37789268
H       47.54766029      50.55768125      50.42324470
H       49.11246441      52.23271966      50.73017866
H       51.60444075      51.85481854      50.42546288
H       52.41849529      49.45533890      49.81185342
H       50.68486448      47.77004808      49.32796684
