12
Lattice="100.0 0.0 0.0 0.0 100.0 0.0 0.0 0.0 100.0" Properties=species:S:1:pos:R:3 Energy=-145434.80017099832 Energy_pyscf=-145434.65865793353 pbc="F F F" Energy_pyscf_og=-145434.60878956292
C       49.01310174      49.04231101      49.74659566
C       48.57418796      50.28367472      50.18574920
C       49.54520513      51.29503017      50.46833606
C       50.92563585      50.99711110      50.30889971
C       51.34503534      49.68710604      49.97199432
C       50.37499482      48.77046239      49.64352843
H       48.31758046      48.31559926      49.40167138
H       47.53167627      50.51777457      50.36936844
H       49.17851051      52.24592123      50.73214125
H       51.63068580      51.84739083      50.44444391
H       52.41266526      49.45542953      49.86800634
H       50.66863925      47.79167418      49.33531219
