12
Lattice="100.0 0.0 0.0 0.0 100.0 0.0 0.0 0.0 100.0" Properties=species:S:1:pos:R:3 Energy=-145430.3932876559 Energy_pyscf=-145430.5012802812 pbc="F F F" Energy_pyscf_og=-145430.2134042377
C       48.97230959      48.97782143      49.86452021
C       48.57508505      50.30688776      50.18733589
C       49.50409180      51.30450479      50.47414635
C       50.90709946      50.94218796      50.45109765
C       51.34400060      49.68898971      49.95332323
C       50.35286604      48.68456059      49.61922526
H       48.25431392      48.13904102      49.74378608
H       47.49110582      50.48350934      50.35718013
H       49.00178573      52.23381723      50.71976636
H       51.65020959      51.77251510      50.66297339
H       52.44322280      49.51578884      49.94889329
H       50.68379871      47.72883130      49.28424874
