12
Lattice="100.0 0.0 0.0 0.0 100.0 0.0 0.0 0.0 100.0" Properties=species:S:1:pos:R:3 Energy=-145429.60375201775 Energy_pyscf=-145429.8597690874 pbc="F F F" Energy_pyscf_og=-145429.41783651247
C       49.01921335      49.03586707      49.72941148
C       48.66570577      50.30072423      50.15094527
C       49.56974775      51.27970481      50.39254684
C       50.96524672      51.01687815      50.35263484
C       51.37020026      49.70826792      49.93707416
C       50.37038779      48.72642372      49.60846265
H       48.24523683      48.41507269      49.31848474
H       47.53467840      50.44688954      50.06859074
H       49.26792583      52.24418158      50.67369113
H       51.75790594      51.74429011      50.57323292
H       52.43202265      49.46086620      49.67680154
H       50.68033124      47.71781421      49.31365845
