12
Lattice="100.0 0.0 0.0 0.0 100.0 0.0 0.0 0.0 100.0" Properties=species:S:1:pos:R:3 Energy=-145428.66702201692 Energy_pyscf=-145428.55941297486 pbc="F F F" Energy_pyscf_og=-145428.48488045944
C       49.01266921      49.07575206      49.72855557
C       48.55447854      50.31405723      50.17307756
C       49.55926380      51.24035460      50.47824370
C       50.94061595      50.98942799      50.37318892
C       51.29004497      49.70383659      49.99774748
C       50.32905090      48.78714552      49.66386652
H       48.34917597      48.32604513      49.33380114
H       47.55003387      50.51676470      50.41010182
H       49.18303434      52.22097593      50.69165634
H       51.62337856      51.83783409      50.36639315
H       52.41262063      49.48719301      49.86766081
H       50.63187061      47.78794643      49.32819479
