12
Lattice="100.0 0.0 0.0 0.0 100.0 0.0 0.0 0.0 100.0" Properties=species:S:1:pos:R:3 Energy=-145433.73841616674 Energy_pyscf=-145433.60024584382 pbc="F F F" Energy_pyscf_og=-145433.5524833428
C       49.06812802      49.05707539      49.61506517
C       48.63937070      50.34394835      49.99183411
C       49.56119984      51.32717840      50.29448561
C       50.90698587      51.03126592      50.13801379
C       51.34196871      49.73999661      49.78769523
C       50.42343949      48.75982807      49.46643863
H       48.30818349      48.36995113      49.41982015
H       47.58237072      50.49172737      50.21811320
H       49.23893632      52.35929024      50.67555478
H       51.66877198      51.81439584      50.34066751
H       52.38291757      49.51078639      49.72516804
H       50.64864547      47.67612271      49.25324349
