12
Lattice="100.0 0.0 0.0 0.0 100.0 0.0 0.0 0.0 100.0" Properties=species:S:1:pos:R:3 Energy=-145432.26286301998 Energy_pyscf=-145431.9139505126 pbc="F F F" Energy_pyscf_og=-145432.08559501538
C       49.04142642      49.02034203      49.66941731
C       48.67250146      50.34532416      50.08028727
C       49.57110808      51.32781932      50.46752702
C       50.92234787      50.99660204      50.31417222
C       51.34972406      49.69124415      49.88108573
C       50.38130597      48.69826635      49.62224726
H       48.21394796      48.40622446      49.35683334
H       47.59282889      50.42364306      50.08644887
H       49.25369989      52.34432358      50.71945252
H       51.76249549      51.67450152      50.53920430
H       52.36869991      49.50535191      49.72989260
H       50.74878015      47.69666457      49.29677799
