12
Lattice="100.0 0.0 0.0 0.0 100.0 0.0 0.0 0.0 100.0" Properties=species:S:1:pos:R:3 Energy=-145434.41013154972 Energy_pyscf=-145434.23623222904 pbc="F F F" Energy_pyscf_og=-145434.2258347825
C       49.03957469      48.96438267      49.65819848
C       48.66173699      50.27027688      49.97907385
C       49.61346587      51.22089719      50.34458258
C       50.99514389      50.92408290      50.26960184
C       51.39008325      49.68108833      49.82292492
C       50.40033579      48.70915318      49.56291780
H       48.29296730      48.23253141      49.38860284
H       47.66577199      50.60627256      50.01032008
H       49.33048621      52.26354097      50.62316814
H       51.78187195      51.65587577      50.43040805
H       52.39771869      49.28551375      49.70590875
H       50.73162026      47.68402900      49.33676228
