12
Lattice="100.0 0.0 0.0 0.0 100.0 0.0 0.0 0.0 100.0" Properties=species:S:1:pos:R:3 Energy=-145433.33628016783 Energy_pyscf=-145432.93836771988 pbc="F F F" Energy_pyscf_og=-145433.15170342074
C       49.02697248      49.02256693      49.84283915
C       48.58903311      50.28802225      50.18529435
C       49.47552656      51.31517651      50.47478159
C       50.82889397      50.96798607      50.42707382
C       51.27946888      49.70883383      49.94455933
C       50.35269379      48.68926764      49.65813594
H       48.31670322      48.17138270      49.73366638
H       47.54302980      50.47285789      50.32615279
H       49.04638110      52.24011219      50.76785890
H       51.61718907      51.65979412      50.64073632
H       52.38147721      49.55071910      49.94314482
H       50.65524411      47.69620013      49.29324891
