12
Lattice="100.0 0.0 0.0 0.0 100.0 0.0 0.0 0.0 100.0" Properties=species:S:1:pos:R:3 Energy=-145432.79446443924 Energy_pyscf=-145432.86255994078 pbc="F F F" Energy_pyscf_og=-145432.61367150093
C       48.97832292      49.02852210      49.60922821
C       48.63386434      50.34282533      49.90677796
C       49.56069292      51.28598474      50.28344461
C       50.94380234      51.00744183      50.17461806
C       51.36316412      49.72896768      49.77864702
C       50.37787018      48.78263048      49.49136353
H       48.30122920      48.21951242      49.42522496
H       47.60690901      50.54944143      50.03788277
H       49.17329039      52.23921426      50.63068795
H       51.75554052      51.72438295      50.32358867
H       52.43915756      49.47044653      49.63317053
H       50.70990220      47.71718348      49.31437128
