12
Lattice="100.0 0.0 0.0 0.0 100.0 0.0 0.0 0.0 100.0" Properties=species:S:1:pos:R:3 Energy=-145433.41178023274 Energy_pyscf=-145433.26542726357 pbc="F F F" Energy_pyscf_og=-145433.22520536793
C       49.03239326      49.07294719      49.46757831
C       48.64461569      50.38289296      49.83172907
C       49.59314091      51.33723153      50.25035758
C       50.96171215      51.05595187      50.14097756
C       51.36992870      49.76532788      49.62510960
C       50.40295563      48.76080549      49.44512705
H       48.26975193      48.33823351      49.26656797
H       47.57695753      50.50463799      49.95629358
H       49.27268805      52.30972116      50.72989342
H       51.71354076      51.87578697      50.34883765
H       52.40609106      49.54128257      49.50616971
H       50.65231067      47.67696296      49.30757796
