12
Lattice="100.0 0.0 0.0 0.0 100.0 0.0 0.0 0.0 100.0" Properties=species:S:1:pos:R:3 Energy=-145432.02649763145 Energy_pyscf=-145432.24241246004 pbc="F F F" Energy_pyscf_og=-145431.84226310556
C       48.99218488      49.00235234      49.79932661
C       48.56885948      50.24877475      50.18329764
C       49.47431560      51.29534839      50.46330374
C       50.87396242      50.98535618      50.43247066
C       51.29073708      49.69837816      50.00541737
C       50.33739731      48.69757626      49.62358278
H       48.26006915      48.19797724      49.82145465
H       47.52045826      50.41170782      50.31084495
H       49.00879323      52.28519708      50.73889027
H       51.68610896      51.70369280      50.67289357
H       52.43164977      49.50909411      49.94334573
H       50.68251428      47.75093806      49.26399503
