12
Lattice="100.0 0.0 0.0 0.0 100.0 0.0 0.0 0.0 100.0" Properties=species:S:1:pos:R:3 Energy=-145434.27706782124 Energy_pyscf=-145433.9599711028 pbc="F F F" Energy_pyscf_og=-145434.09059094914
C       49.07713056      49.05776083      49.74005952
C       48.60004628      50.29523614      50.12095117
C       49.53541401      51.31319015      50.48043841
C       50.92006272      50.96409035      50.38494424
C       51.35040640      49.69025219      49.92976848
C       50.43372404      48.72113460      49.63756230
H       48.34213359      48.30443537      49.54655098
H       47.52714335      50.49887749      50.16181466
H       49.22310994      52.27969569      50.73259979
H       51.64025880      51.78065229      50.65646850
H       52.40047064      49.46247395      49.98719906
H       50.72162293      47.71741401      49.29490331
