12
Lattice="100.0 0.0 0.0 0.0 100.0 0.0 0.0 0.0 100.0" Properties=species:S:1:pos:R:3 Energy=-145433.26680434824 Energy_pyscf=-145432.74851555336 pbc="F F F" Energy_pyscf_og=-145433.08415071745
C       49.07317915      48.97484658      49.64721428
C       48.70973105      50.31020250      50.05786008
C       49.62088371      51.30173566      50.41591292
C       51.00705161      50.95421516      50.30483853
C       51.40139825      49.65713421      49.95493877
C       50.44539581      48.70871738      49.47246824
H       48.34408017      48.20389361      49.29237556
H       47.67727456      50.61043858      50.09200473
H       49.24531490      52.26596366      50.81600967
H       51.75457301      51.67284660      50.56521586
H       52.42935076      49.40742996      49.85570518
H       50.77573397      47.70658818      49.14672295
