12
Lattice="100.0 0.0 0.0 0.0 100.0 0.0 0.0 0.0 100.0" Properties=species:S:1:pos:R:3 Energy=-145431.97977196387 Energy_pyscf=-145432.08095492632 pbc="F F F" Energy_pyscf_og=-145431.79278912608
C       49.08951954      48.98445002      49.75107333
C       48.65486269      50.27208022      50.17306313
C       49.69794233      51.24561056      50.43115483
C       51.03582628      50.90434165      50.36734339
C       51.41117940      49.61830588      49.99615214
C       50.43052618      48.70317785      49.64856207
H       48.42069596      48.16292263      49.46763676
H       47.57566075      50.52946897      50.32690686
H       49.48441021      52.27704768      50.67431157
H       51.78684689      51.55602329      50.65374947
H       52.45679817      49.21861390      49.89267577
H       50.75417717      47.67833598      49.30674015
