12
Lattice="100.0 0.0 0.0 0.0 100.0 0.0 0.0 0.0 100.0" Properties=species:S:1:pos:R:3 Energy=-145431.30217316689 Energy_pyscf=-145431.33938595618 pbc="F F F" Energy_pyscf_og=-145431.1210591396
C       49.07249000      48.99530660      49.70100180
C       48.64933084      50.24429157      50.19005320
C       49.62026388      51.20140074      50.41260762
C       50.98922119      50.92273739      50.31093259
C       51.42106896      49.60309463      49.99750842
C       50.43394207      48.65615804      49.65399058
H       48.44112684      48.21267966      49.31689267
H       47.60252013      50.38645110      50.40452122
H       49.32023368      52.21526751      50.77208251
H       51.72721675      51.68117165      50.52660530
H       52.42973852      49.24445868      50.17630656
H       50.63002542      47.73478945      49.13937395
