12
Lattice="100.0 0.0 0.0 0.0 100.0 0.0 0.0 0.0 100.0" Properties=species:S:1:pos:R:3 Energy=-145430.93336088603 Energy_pyscf=-145430.76093439205 pbc="F F F" Energy_pyscf_og=-145430.7503141865
C       49.09726200      48.93562059      49.95376920
C       48.68328071      50.30010926      50.21687055
C       49.64736156      51.22280431      50.54959843
C       50.99595069      50.88360981      50.49863784
C       51.46298158      49.69351794      49.98509153
C       50.49044157      48.67595100      49.74788940
H       48.34840743      48.17209113      49.74896018
H       47.61293338      50.57671949      50.34762504
H       49.42461128      52.28613629      50.68421983
H       51.76121094      51.63782517      50.75959630
H       52.47274406      49.58579764      49.69695531
H       50.86875401      47.74030479      49.35401332
