12
Lattice="100.0 0.0 0.0 0.0 100.0 0.0 0.0 0.0 100.0" Properties=species:S:1:pos:R:3 Energy=-145426.32445955128 Energy_pyscf=-145426.5538132664 pbc="F F F" Energy_pyscf_og=-145426.14237423168
C       49.03866958      48.98934171      49.86358486
C       48.65945281      50.23398545      50.16568939
C       49.58506467      51.26334886      50.58446653
C       50.95506444      50.90878959      50.44340814
C       51.33439438      49.60665734      50.00422908
C       50.39263503      48.66670985      49.70569674
H       48.24560525      48.32326536      49.49845799
H       47.52224494      50.46463521      50.13080970
H       49.21423384      52.23864997      50.79289417
H       51.76912658      51.65288133      50.63853914
H       52.42936334      49.20585291      49.97563742
H       50.70197925      47.76099816      49.21334078
