12
Lattice="100.0 0.0 0.0 0.0 100.0 0.0 0.0 0.0 100.0" Properties=species:S:1:pos:R:3 Energy=-145426.61196393362 Energy_pyscf=-145425.7568782323 pbc="F F F" Energy_pyscf_og=-145426.4381340296
C       49.08335406      49.04861354      49.67596236
C       48.62619398      50.27468007      50.10892529
C       49.58999332      51.31945138      50.48337505
C       50.94957796      50.97478430      50.39992177
C       51.33666677      49.68414190      49.94533503
C       50.39894521      48.64759495      49.73581127
H       48.31728338      48.35417210      49.25933438
H       47.60106910      50.51905101      50.23981359
H       49.19243019      52.31535802      50.68318873
H       51.77525495      51.71090705      50.61731134
H       52.33155351      49.23909771      50.11042242
H       50.74162816      47.67185155      49.28755614
