12
Lattice="100.0 0.0 0.0 0.0 100.0 0.0 0.0 0.0 100.0" Properties=species:S:1:pos:R:3 Energy=-145434.1738934 Energy_pyscf=-145433.78067451995 pbc="F F F" Energy_pyscf_og=-145433.9939530018
C       49.03184518      48.95286113      49.64483452
C       48.70197572      50.27479885      50.08239716
C       49.64772468      51.29719355      50.39928635
C       50.98241857      50.97002970      50.32030235
C       51.36924724      49.69520574      49.91919668
C       50.44855187      48.70424868      49.54929733
H       48.29838169      48.21890909      49.28478927
H       47.68872359      50.60972774      50.09932057
H       49.26571575      52.23727473      50.81414069
H       51.80367097      51.66166850      50.56238674
H       52.40608884      49.41887670      49.82888790
H       50.82509476      47.73558813      49.15685294
