12
Lattice="100.0 0.0 0.0 0.0 100.0 0.0 0.0 0.0 100.0" Properties=species:S:1:pos:R:3 Energy=-145431.04556059907 Energy_pyscf=-145431.4146581409 pbc="F F F" Energy_pyscf_og=-145430.86148519916
C       48.99566416      49.00739092      49.86052978
C       48.59070757      50.28449543      50.19940794
C       49.50058704      51.26459163      50.45140391
C       50.81889347      50.95340382      50.40448821
C       51.32330379      49.68893287      49.99215785
C       50.35763733      48.74478556      49.63835203
H       48.27247050      48.20636544      49.78201569
H       47.54191642      50.43703219      50.31959796
H       49.03889238      52.23158424      50.72823911
H       51.63091090      51.66424412      50.64705077
H       52.41788244      49.53415170      49.93178872
H       50.64088084      47.77627949      49.28583454
