21
Lattice="100.0 0.0 0.0 0.0 100.0 0.0 0.0 0.0 100.0" Properties=species:S:1:pos:R:3 Energy=-406270.29756839917 pbc="F F F"
C       52.31528192      49.16698216      49.88145477
C       51.25113309      51.66900153      49.13692094
C       53.04565406      50.10254639      49.07351626
C       52.51576283      51.28738795      48.61911579
C       46.75062401      51.07701558      50.87893789
C       51.09264380      49.51256536      50.41436233
C       50.55886396      50.67636420      49.93932976
O       51.18990991      47.38764092      51.29018375
O       48.00157385      49.68037512      49.14626824
O       49.22854559      48.42896703      51.58936483
C       50.50565352      48.39329645      51.12604622
C       48.10196090      50.50520079      50.07456088
O       49.26651360      51.15495258      50.42745873
H       49.05010128      47.59966970      52.08297121
H       52.69992600      48.27387124      50.18217344
H       50.82473947      52.61235908      48.76336663
H       54.10182756      49.75584913      48.79445341
H       53.13763581      51.88939580      47.91702879
H       45.89817244      50.59624109      50.41786706
H       46.68551000      50.78729719      51.92318592
H       46.46448862      52.20907478      50.79022409
