21
Lattice="100.0 0.0 0.0 0.0 100.0 0.0 0.0 0.0 100.0" Properties=species:S:1:pos:R:3 Energy=-406262.06519450684 pbc="F F F"
C       52.17551918      49.38858766      49.36204594
C       51.28281266      52.01008905      48.86116440
C       52.97350370      50.28956576      48.73860959
C       52.60823389      51.65701706      48.59302416
C       47.09079302      51.09248199      50.95345621
C       51.03450530      49.77899525      49.97361394
C       50.51266560      50.96687403      49.60799866
O       49.17455409      48.74438557      51.33068047
O       47.74012593      50.46344037      48.68541032
O       51.18057398      47.74148638      51.05075535
C       50.30267154      48.69358078      50.77111619
C       48.00832231      51.01859108      49.75579836
O       49.35027031      51.52128109      50.27532839
H       50.80716785      46.99646612      51.62110092
H       52.54750963      48.34831846      49.49029118
H       50.73208144      53.00353388      48.72644541
H       53.97304715      49.88370095      48.66732873
H       53.31307556      52.51567908      48.34860678
H       46.02695285      50.88562217      50.50828183
H       47.33691357      50.16104663      51.55407588
H       47.28888125      51.96910273      51.65139322
