21
Lattice="100.0 0.0 0.0 0.0 100.0 0.0 0.0 0.0 100.0" Properties=species:S:1:pos:R:3 Energy=-406269.61689672346 pbc="F F F"
C       52.28570287      49.38529033      49.69377067
C       51.19937801      51.90968927      49.27880924
C       52.97946146      50.31388557      49.01134427
C       52.38789128      51.58428900      48.69784229
C       46.94539125      51.47444463      50.90656785
C       51.09912062      49.78541551      50.23776421
C       50.51991018      50.97268253      50.03429507
O       49.20817523      48.63713093      51.24862722
O       48.07323171      50.16809918      49.10569974
O       51.24682599      47.81031447      51.51340790
C       50.41439270      48.72293693      50.95783574
C       48.18716908      50.82428195      50.11933025
O       49.41450242      51.28904311      50.76185763
H       50.70851140      47.05363577      51.94437169
H       52.68977412      48.36649560      49.83714859
H       50.72701820      52.94636423      49.51739090
H       53.93408213      49.99592653      48.49767984
H       52.96802484      52.28405672      48.05562831
H       46.06591787      51.52831360      50.16959469
H       46.56901471      50.69130125      51.63529190
H       47.37046519      52.35069802      51.49246639
