21
Lattice="100.0 0.0 0.0 0.0 100.0 0.0 0.0 0.0 100.0" Properties=species:S:1:pos:R:3 Energy=-406268.15035648213 pbc="F F F"
C       52.47391790      49.99502935      49.98290101
C       50.92784670      51.88643875      48.74466137
C       53.07981080      50.80632536      49.10354821
C       52.29739666      51.77242761      48.49196450
C       46.54422558      51.23173969      50.22067970
C       51.08503924      49.95955907      50.19832073
C       50.28443197      50.99880834      49.56044220
O       49.39418081      49.12166694      51.90312812
O       48.64048918      52.43471096      51.03978209
O       51.42579624      48.02300912      51.66314609
C       50.42278742      48.91203955      51.28600967
C       48.08222086      51.67002867      50.27337256
O       48.82095063      50.83034697      49.42374943
H       51.21653230      47.23376542      52.23370941
H       53.20241782      49.32143300      50.54445274
H       50.57237070      52.76623458      48.31277802
H       54.10216336      50.70322630      48.96078257
H       52.72267198      52.47569856      47.76629059
H       45.89783664      51.96385264      50.77821234
H       46.08508225      51.19646747      49.20674631
H       46.53912585      50.20474642      50.63647557
