21
Lattice="100.0 0.0 0.0 0.0 100.0 0.0 0.0 0.0 100.0" Properties=species:S:1:pos:R:3 Energy=-406261.5729789432 pbc="F F F"
C       52.42762471      49.80589581      49.80662855
C       50.72494594      51.58388850      48.56274368
C       52.91743920      50.88568542      48.93190925
C       52.04792615      51.77497237      48.40464427
C       46.76675804      50.56786365      50.12814819
C       51.04605133      49.52185021      49.85756163
C       50.26327920      50.49163074      49.16566827
O       50.27845287      49.17695919      52.15543499
O       48.27598650      52.44101408      49.97856310
O       49.62605011      47.59393029      50.61765099
C       50.34864359      48.77314514      50.98951929
C       48.03992456      51.24531282      49.80159422
O       48.86721945      50.28349779      49.33879620
H       48.97746918      47.40471685      51.25366982
H       53.02148011      49.15781978      50.49795511
H       49.98318583      52.23788667      48.22076726
H       53.96928357      51.19081042      48.67204563
H       52.46375648      52.59528315      47.84456501
H       46.48139639      49.88667198      49.34617167
H       46.91413933      49.82092195      50.88066836
H       46.03071643      51.28284542      50.18959088
