21
Lattice="100.0 0.0 0.0 0.0 100.0 0.0 0.0 0.0 100.0" Properties=species:S:1:pos:R:3 Energy=-406259.82078349823 pbc="F F F"
C       52.41475319      49.37832263      49.33701154
C       50.80801320      51.69906036      48.69334929
C       52.96865161      50.58487261      48.69470663
C       52.14942178      51.71670435      48.27693684
C       47.02812586      51.40043998      50.76950089
C       50.98917969      49.41198119      49.67748949
C       50.29897873      50.59273857      49.44465483
O       49.22988035      47.88045371      50.33650958
O       47.81558343      51.73905117      48.57462655
O       51.05932185      48.01211991      51.75910414
C       50.28523993      48.37675293      50.63906632
C       47.93561658      51.26169142      49.69697904
O       48.97326759      50.61051077      50.10665975
H       50.34208912      47.38081214      52.18962174
H       53.09881705      48.44414594      49.34217548
H       49.99320718      52.43433083      48.53035182
H       53.93771891      50.46130593      48.24386372
H       52.58335182      52.61918786      47.81037826
H       46.99217615      52.33688715      51.20334441
H       46.06228109      51.02465975      50.37987231
H       47.25839929      50.87824875      51.66572869
