21
Lattice="100.0 0.0 0.0 0.0 100.0 0.0 0.0 0.0 100.0" Properties=species:S:1:pos:R:3 Energy=-406273.43764033046 pbc="F F F"
C       52.34951166      50.11892897      50.53488414
C       50.69146139      51.30944817      48.48747154
C       52.89300858      50.98460048      49.56102418
C       52.11364723      51.46398502      48.41695244
C       46.80892371      50.97283295      50.76180858
C       50.89392837      49.91036237      50.53498344
C       50.09826743      50.62026287      49.61399909
O       49.14968440      48.52652191      51.21499915
O       48.82688589      52.39678091      51.29893979
O       51.04731912      48.19946827      52.22108436
C       50.28832379      48.86196227      51.37657751
C       48.20253896      51.51869154      50.73420194
O       48.77188328      50.61316756      49.78820651
H       50.21442991      47.60321909      52.43128589
H       52.87656649      49.64514720      51.38335732
H       50.03834595      51.76185066      47.73533990
H       53.99756824      51.02995308      49.62549013
H       52.52256429      52.08790608      47.56871411
H       46.56321642      50.46230842      51.74879856
H       46.00243176      51.65780927      50.56937285
H       46.76422405      50.13174906      49.97741563
