21
Lattice="100.0 0.0 0.0 0.0 100.0 0.0 0.0 0.0 100.0" Properties=species:S:1:pos:R:3 Energy=-406271.00919003255 pbc="F F F"
C       52.57619264      49.56370758      49.37463987
C       50.98895974      51.84139018      49.04615143
C       53.07851709      50.71756293      48.55220952
C       52.16767816      51.79538734      48.30030996
C       46.98638664      51.36106365      50.55963644
C       51.20230974      49.62586006      49.94685766
C       50.38774068      50.71751709      49.66024413
O       49.56727365      47.92751053      50.26956548
O       48.37829260      52.09867288      48.65113915
O       51.22870405      48.08312293      51.91992727
C       50.56586282      48.46809193      50.66339317
C       48.16149001      51.49049301      49.65353266
O       49.16304083      50.80019679      50.30634907
H       50.74428447      47.27939196      52.17752287
H       53.20231763      48.69587576      49.46503427
H       50.40841616      52.70064864      49.03323559
H       53.97708521      50.68794004      47.95850190
H       52.56355539      52.72060804      47.82247713
H       47.35032172      51.75701014      51.56070454
H       46.02291479      51.77095309      50.10238019
H       46.70396105      50.32565092      50.65119798
