21
Lattice="100.0 0.0 0.0 0.0 100.0 0.0 0.0 0.0 100.0" Properties=species:S:1:pos:R:3 Energy=-406268.75886421313 pbc="F F F"
C       52.13654237      49.59281138      50.06717350
C       50.81335850      52.04204526      49.13475082
C       52.83842664      50.58547945      49.32736419
C       52.16345555      51.79336236      48.78560079
C       47.00934613      51.21063323      51.29873613
C       50.80562391      49.96530326      50.44561922
C       50.23256587      51.16619320      50.16322853
O       48.94163985      48.71028970      51.48642020
O       47.86564082      50.93543388      49.08132039
O       51.05509802      47.90055490      51.52172658
C       50.12058339      48.88457094      51.17310891
C       48.02091756      51.22833944      50.25472752
O       49.15991661      51.59972167      50.88559385
H       50.48741397      47.10187406      51.78158356
H       52.50340623      48.56472460      50.13273972
H       50.21933470      52.89812594      48.91015665
H       53.95288045      50.39813549      48.99730450
H       52.84283117      52.20762301      48.02547600
H       46.04711955      50.76245024      50.87984914
H       47.45818079      50.41320531      51.93984275
H       46.84077374      52.07051486      51.97452400
