21
Lattice="100.0 0.0 0.0 0.0 100.0 0.0 0.0 0.0 100.0" Properties=species:S:1:pos:R:3 Energy=-406263.10289844085 pbc="F F F"
C       52.27282977      49.67652606      50.13816722
C       50.72389117      51.56482240      48.74996118
C       52.97044955      50.47561571      49.21533085
C       52.12750721      51.41259797      48.36195236
C       46.64618193      50.83093987      50.45718865
C       50.92786427      49.81959843      50.33302961
C       50.16704082      50.74664287      49.68725604
O       49.09220175      48.51529383      50.96018184
O       48.37670057      52.35057863      51.21045499
O       51.06675948      48.55924077      52.14080868
C       50.24688626      48.94310162      51.25540142
C       48.03545843      51.37929948      50.56286389
O       48.79142795      50.58968925      49.74087843
H       50.82738359      47.64942137      52.56821627
H       52.82638548      48.81354694      50.58620237
H       50.18991000      52.30421053      48.22027664
H       54.04751725      50.28021417      49.03162934
H       52.54604641      51.99058258      47.43178373
H       46.57293480      49.82488955      50.87185556
H       45.95248275      51.37771202      51.10593745
H       46.31761190      50.77776267      49.43202294
