21
Lattice="100.0 0.0 0.0 0.0 100.0 0.0 0.0 0.0 100.0" Properties=species:S:1:pos:R:3 Energy=-406265.7399237194 pbc="F F F"
C       52.17266527      50.25245687      50.46622547
C       50.81510847      51.62542025      48.52917146
C       52.89316303      50.85122525      49.44260217
C       52.20971270      51.64093946      48.49457374
C       46.60130136      51.56497720      50.74822746
C       50.79494366      50.27381509      50.49370544
C       50.08349519      50.91485841      49.47845542
O       49.31472816      48.61471056      51.16454970
O       48.84247060      52.27094542      51.31009383
O       51.43182188      48.61383099      52.11643609
C       50.37723970      49.14072582      51.33018620
C       48.16766298      51.61674094      50.51880770
O       48.70821291      50.89762009      49.46728249
H       51.08836954      47.65530082      52.29370782
H       52.63781345      49.73401094      51.21868586
H       50.32161799      52.34469918      47.95173689
H       53.96417256      50.83240293      49.46640014
H       52.62945787      52.27444146      47.70629218
H       46.03582744      52.27959155      51.33970104
H       46.15028429      51.23809879      49.80973246
H       46.37088046      50.62115153      51.32302528
