21
Lattice="100.0 0.0 0.0 0.0 100.0 0.0 0.0 0.0 100.0" Properties=species:S:1:pos:R:3 Energy=-406276.5525789072 pbc="F F F"
C       52.28791956      49.41929001      49.85163333
C       51.21885747      51.89824511      49.02687868
C       53.03343118      50.25254021      49.05368228
C       52.52938397      51.45186335      48.63984139
C       46.83377251      51.35411403      50.84115845
C       51.03514285      49.75519961      50.26150229
C       50.39253767      51.02527275      49.81126742
O       49.45225572      48.74203940      51.85248112
O       47.99008027      49.95414177      49.27254642
O       51.14657340      47.56785307      50.97085256
C       50.45349398      48.76731040      51.11063818
C       47.99828565      50.89948627      50.03209247
O       49.23991231      51.53764865      50.31605240
H       50.86970076      47.03628383      51.77830111
H       52.82687219      48.51335871      50.11931438
H       50.96144989      52.96371617      48.59409930
H       54.03166190      50.06939353      48.85085527
H       53.16825051      52.14901548      48.14751888
H       45.96833810      51.33629111      50.12847456
H       46.56625674      50.50898677      51.53220545
H       46.86051603      52.34379108      51.37968541
