21
Lattice="100.0 0.0 0.0 0.0 100.0 0.0 0.0 0.0 100.0" Properties=species:S:1:pos:R:3 Energy=-406271.96739292564 pbc="F F F"
C       52.33465380      49.38254525      49.19090128
C       51.35170808      52.11166628      49.15535058
C       53.00894939      50.36963250      48.45704664
C       52.61054501      51.73563115      48.60010186
C       46.85011702      51.33262568      49.92073097
C       51.19728818      49.76907175      49.92945149
C       50.62863041      51.09246015      49.88286028
O       50.10966011      48.96974913      51.92345511
O       48.48598507      50.16299023      48.59342413
O       51.02293366      47.43410120      50.40780790
C       50.71191279      48.71197885      50.86877055
C       48.22651707      50.90344837      49.53275770
O       49.31188098      51.42881694      50.40151792
H       50.97858155      46.84820327      51.21091574
H       52.63544918      48.32369894      49.18319226
H       51.02382481      53.15179673      48.94158164
H       53.97019826      49.96000953      48.07654489
H       53.18902025      52.44157519      48.12565176
H       46.74540504      52.39196399      50.48104396
H       46.02980174      51.26488328      49.06944323
H       46.57751030      50.60610877      50.80330828
