21
Lattice="100.0 0.0 0.0 0.0 100.0 0.0 0.0 0.0 100.0" Properties=species:S:1:pos:R:3 Energy=-406260.2683572706 pbc="F F F"
C       52.28387880      49.49419615      49.50346585
C       50.60814452      51.59933332      48.69556767
C       52.74050943      50.43021162      48.54562145
C       51.96176324      51.55640445      48.20420975
C       46.71188988      51.36644379      50.56976821
C       50.85122737      49.51139641      49.95665983
C       50.03658690      50.64372508      49.67674149
O       49.39071698      47.53773873      50.23478474
O       47.86270573      52.00460768      48.48874560
O       51.03351925      47.89807491      51.68779162
C       50.33157916      48.23400817      50.61459947
C       47.81182185      51.49342724      49.59495494
O       48.75099967      50.60217172      50.01927531
H       50.44824707      47.44282959      52.24538178
H       52.77839556      48.48077705      49.64704500
H       49.97508888      52.55717041      48.50834288
H       53.85770407      50.35566810      48.20093160
H       52.23976592      52.44841145      47.75461822
H       47.14610536      51.49126703      51.52593110
H       46.14229593      52.25362493      50.41208287
H       46.27190747      50.37485571      50.51155358
