21
Lattice="100.0 0.0 0.0 0.0 100.0 0.0 0.0 0.0 100.0" Properties=species:S:1:pos:R:3 Energy=-406256.63413479546 pbc="F F F"
C       52.65793797      50.32841939      50.30098923
C       50.93263312      51.68968226      48.74499899
C       53.10327351      50.87363360      49.13587159
C       52.23837248      51.62223331      48.37906539
C       46.80122229      51.34551432      49.56213095
C       51.30253089      50.20514296      50.51625812
C       50.42751877      50.90928547      49.74772244
O       50.72599197      48.88997389      52.53193745
O       48.58868809      52.82965453      50.62219756
O       50.59502614      47.84136420      50.59884634
C       50.82205106      49.01217367      51.27714103
C       48.24551190      51.79594625      50.14018703
O       49.07061341      50.76807498      49.75434450
H       50.24051771      47.17034547      51.12565676
H       53.31520493      49.60374443      50.82486586
H       50.32892756      52.49203073      48.30123660
H       54.09460874      50.72949050      48.78704477
H       52.55970923      52.22154266      47.46806255
H       45.90539126      51.48538665      50.32549518
H       46.34117645      52.01890378      48.75665059
H       46.92522236      50.22844884      49.27231486
