21
Lattice="100.0 0.0 0.0 0.0 100.0 0.0 0.0 0.0 100.0" Properties=species:S:1:pos:R:3 Energy=-406264.38335461187 pbc="F F F"
C       52.60630626      49.69703740      49.63190359
C       50.94787439      51.43389298      48.32287700
C       53.11638007      50.59991538      48.72322309
C       52.36932204      51.59932228      48.21954605
C       46.86143284      51.51874324      49.28554593
C       51.24084872      49.59490621      49.95456321
C       50.35394532      50.52455340      49.21595125
O       51.50007358      47.43734698      51.01013729
O       48.58351100      52.19537146      50.75623736
O       49.93481183      48.84792706      51.89843266
C       50.89700777      48.47850753      50.98454305
C       48.26334953      51.35446992      49.92490904
O       48.99944143      50.39165889      49.30361375
H       49.81062210      48.01434823      52.41016384
H       53.36537967      49.12775865      50.22397124
H       50.45400025      52.13484840      47.69918588
H       54.13495617      50.41738649      48.47737865
H       52.98931969      52.14361242      47.58983616
H       45.86504383      51.45816888      49.90600606
H       46.73396646      52.56265302      48.83969749
H       46.63225681      50.77760652      48.44385167
