21
Lattice="100.0 0.0 0.0 0.0 100.0 0.0 0.0 0.0 100.0" Properties=species:S:1:pos:R:3 Energy=-406256.7969440431 pbc="F F F"
C       52.61684153      49.27076113      49.97498669
C       51.13497081      51.49999330      49.10806030
C       53.27212332      50.14407561      49.16675441
C       52.51107843      51.34445635      48.77572439
C       46.74745920      50.74474546      50.87863876
C       51.23585255      49.46000963      50.27001216
C       50.48006888      50.48176655      49.89200776
O       51.19963601      47.60164533      51.70790816
O       47.88732074      51.20584885      48.78983275
O       49.26091005      48.46306372      50.89474798
C       50.67187145      48.43092516      51.04450996
C       47.94799959      50.92955412      49.88470972
O       49.22450594      50.71225304      50.58694388
H       48.93383939      47.69680630      51.48893240
H       53.24979399      48.40518459      50.34720330
H       50.49930510      52.39835467      48.89450420
H       54.27407621      50.11893086      48.70513186
H       53.06755784      52.08890466      48.22206455
H       45.72592379      50.60566799      50.39552351
H       47.06614673      49.78196941      51.43436523
H       46.64449250      51.50939181      51.77793545
