21
Lattice="100.0 0.0 0.0 0.0 100.0 0.0 0.0 0.0 100.0" Properties=species:S:1:pos:R:3 Energy=-406282.72181464126 pbc="F F F"
C       52.20963778      50.16506916      50.51654403
C       50.66507691      51.77453432      48.55006776
C       52.85172793      50.93785089      49.40878364
C       52.07375929      51.73918048      48.50320059
C       46.54114634      51.02510515      50.65508953
C       50.79569957      50.20152368      50.50758360
C       50.02626760      50.96786252      49.59494074
O       48.88493269      49.35519375      51.80679023
O       48.52252243      52.05860599      51.57574091
O       50.83962121      48.13322002      51.83307078
C       50.06818673      49.23327037      51.47414197
C       47.98007703      51.41129146      50.75875831
O       48.65619583      51.06251303      49.58074984
H       50.23534079      47.62475513      52.43948269
H       52.84790573      49.60672798      51.20971628
H       50.02033322      52.37524487      47.83542193
H       53.97500103      50.95493326      49.17058514
H       52.56029035      52.14579277      47.56051731
H       46.48164414      49.95931967      50.63453598
H       46.11922484      51.52646042      51.51157004
H       46.02499897      51.42193460      49.82567522
