21
Lattice="100.0 0.0 0.0 0.0 100.0 0.0 0.0 0.0 100.0" Properties=species:S:1:pos:R:3 Energy=-406275.94985897216 pbc="F F F"
C       52.22919851      49.48289409      49.81644074
C       50.86803028      52.01092183      49.41695540
C       52.77533412      50.41094993      48.90996978
C       52.10718328      51.66615298      48.72912314
C       46.70059386      51.79134851      50.56964693
C       51.03150555      49.74441345      50.41001388
C       50.29725607      50.90204120      50.23200606
O       49.37798458      48.29979851      51.28059043
O       48.17917368      50.76244209      48.86262370
O       51.46612597      47.72487134      51.51170609
C       50.53443295      48.54041916      51.09015294
C       48.05591017      51.22120654      49.99351784
O       49.12497363      51.29661708      50.85693629
H       50.96232191      46.99920793      51.90119937
H       52.68426607      48.49609234      50.03416497
H       50.45541963      53.00079207      49.42992382
H       53.88353562      50.30216704      48.54890412
H       52.59504132      52.47370977      48.09880063
H       46.11646438      52.33699752      49.74390300
H       46.16402251      50.93749234      50.95007162
H       46.77702785      52.45784726      51.42934952
