21
Lattice="100.0 0.0 0.0 0.0 100.0 0.0 0.0 0.0 100.0" Properties=species:S:1:pos:R:3 Energy=-406267.42401223903 pbc="F F F"
C       52.10621517      49.55423907      49.53777945
C       51.15367004      52.00614699      49.23684203
C       52.92733353      50.49628422      48.93306160
C       52.42003477      51.83515361      48.70838769
C       46.98087609      50.67853928      50.99132958
C       50.79074286      49.77492305      50.05698750
C       50.38275273      51.16411444      49.95688008
O       49.30188624      49.09719757      51.89887374
O       48.23110834      50.28558380      48.92080267
O       50.57404989      47.53339245      51.07387568
C       50.14073649      48.79876955      51.06765940
C       48.09006633      50.84676283      49.96778663
O       49.12814688      51.58843442      50.41598392
H       50.08770822      46.98088422      51.65676050
H       52.57346814      48.56756089      49.68203051
H       50.52204295      53.01911578      49.07576957
H       53.76654436      50.05689453      48.38725614
H       53.09438586      52.50237568      48.10112626
H       47.44150939      49.85590777      51.54608155
H       46.91232260      51.54226995      51.72840799
H       46.23345564      50.20209276      50.38917718
