21
Lattice="100.0 0.0 0.0 0.0 100.0 0.0 0.0 0.0 100.0" Properties=species:S:1:pos:R:3 Energy=-406258.3069774825 pbc="F F F"
C       51.96880789      49.20030804      49.48660821
C       51.28653543      51.90960176      49.22254521
C       52.84874554      50.13379069      48.68566747
C       52.55702673      51.47785473      48.62962210
C       47.13318721      50.73685812      51.05536866
C       50.84400817      49.72051401      50.08971695
C       50.51883305      51.01153801      49.89182868
O       49.02927432      48.59911972      51.18339920
O       47.98228820      50.02128317      48.97667731
O       50.97680535      47.68533100      51.44037834
C       50.21062261      48.70525198      50.98539000
C       48.08923218      50.54378599      50.05014271
O       49.27672083      51.43332829      50.29394095
H       50.32063591      47.05753917      51.76204316
H       52.27937183      48.22241747      49.67180726
H       50.96010784      52.94246083      49.37685619
H       53.85914310      49.57651788      48.36438668
H       53.19472099      52.11533008      47.95989916
H       46.14085690      50.65421087      50.74320231
H       47.17278903      50.25564160      52.04010084
H       47.21815657      51.75663528      51.30872340
