21
Lattice="100.0 0.0 0.0 0.0 100.0 0.0 0.0 0.0 100.0" Properties=species:S:1:pos:R:3 Energy=-406264.80615798733 pbc="F F F"
C       52.45266600      49.66265844      49.73239601
C       51.11973192      51.99992930      48.97248532
C       53.04349996      50.60738198      49.01664925
C       52.38435853      51.67914498      48.57044580
C       46.78331368      51.47982480      50.56390844
C       51.14903511      50.01656987      50.29538139
C       50.46163513      51.19233019      49.90628454
O       49.64071927      49.33372986      52.12035730
O       47.98346480      49.80224334      49.40012098
O       50.31747769      47.81799882      50.43126248
C       50.33392482      49.08075453      51.16965589
C       48.05741152      50.86017962      50.00488436
O       49.15806334      51.55163914      50.29948282
H       49.50201505      47.36162986      50.80769372
H       53.07004748      48.72996520      49.90489538
H       50.46568495      52.63837014      48.37476978
H       54.07639524      50.50370589      48.83331306
H       52.86551557      52.32558202      47.87964270
H       46.95340517      52.11170091      51.59485276
H       46.31344971      52.26588082      49.88278681
H       45.92360476      50.80987157      50.63678611
