21
Lattice="100.0 0.0 0.0 0.0 100.0 0.0 0.0 0.0 100.0" Properties=species:S:1:pos:R:3 Energy=-406276.61775166215 pbc="F F F"
C       52.24535115      49.50432681      49.82770700
C       50.88826787      52.02264760      49.43033288
C       52.77466009      50.41822266      48.91428545
C       52.10214427      51.67271890      48.74113026
C       46.71166151      51.80335294      50.58448889
C       51.05032564      49.75764177      50.41942692
C       50.31355345      50.91445996      50.24025136
O       49.38468708      48.32001125      51.27830593
O       48.18512590      50.77637036      48.87514657
O       51.47521815      47.73146354      51.51617324
C       50.54949227      48.55443920      51.10010848
C       48.06959293      51.23882064      49.98194495
O       49.13002619      51.30829993      50.86634444
H       50.94574839      46.99885095      51.92820828
H       52.65048820      48.51201287      50.03909747
H       50.48103869      53.00114905      49.44780491
H       53.87396445      50.34710805      48.54764329
H       52.57814266      52.44861064      48.07179172
H       46.12603555      52.34479561      49.75749683
H       46.16788270      50.96622775      50.94573320
H       46.79717741      52.48205536      51.45239118
