21
Lattice="100.0 0.0 0.0 0.0 100.0 0.0 0.0 0.0 100.0" Properties=species:S:1:pos:R:3 Energy=-406266.8474334325 pbc="F F F"
C       52.09523373      49.73344313      50.00678406
C       50.77808027      51.40882596      48.21839534
C       52.88545815      50.51742190      49.10716609
C       52.28133231      51.38765140      48.26897450
C       46.50427937      50.71287495      50.46461641
C       50.77178133      49.85601024      50.10004527
C       50.04208058      50.70663362      49.19484464
O       48.94975895      48.57679543      51.16363455
O       48.56693115      51.90024057      51.26695582
O       51.03892389      48.35355630      51.91769934
C       50.15604679      48.89365187      51.05385841
C       48.03767978      51.13342464      50.43471159
O       48.58011266      50.80741290      49.18038948
H       50.57135838      47.82339921      52.65536990
H       52.59846950      48.94205101      50.68017287
H       50.56871949      52.09634637      47.34463010
H       53.93273015      50.37099256      49.15202499
H       52.78906924      52.17660079      47.59303007
H       46.40208958      49.75943040      51.07431972
H       46.06726985      51.61683163      50.90776699
H       46.12842662      50.69366278      49.49351326
