21
Lattice="100.0 0.0 0.0 0.0 100.0 0.0 0.0 0.0 100.0" Properties=species:S:1:pos:R:3 Energy=-406257.4626180102 pbc="F F F"
C       52.31091506      49.17571824      49.27891195
C       51.34478030      51.74725367      49.24274450
C       53.02256899      50.09373253      48.55106513
C       52.61958562      51.40968670      48.52039060
C       46.87240821      50.74849364      50.21101856
C       51.20657905      49.53745104      50.06754939
C       50.61646773      50.84613343      49.97588641
O       51.33712235      47.21821649      50.72711518
O       48.54159901      50.51015129      48.65350334
O       49.70787897      48.52209747      51.69528918
C       50.83683152      48.31802514      50.80498118
C       48.24621925      50.89397112      49.66984020
O       49.38898525      51.21215889      50.54752589
H       49.70343342      47.55242819      51.93160992
H       52.48048121      48.11643644      49.36999770
H       51.00744035      52.78178351      49.22678453
H       53.95414585      49.69509009      48.13786013
H       53.27742859      52.07536364      48.06839008
H       46.69695446      49.62036895      50.36653021
H       46.91113047      51.20247807      51.17854861
H       46.04585415      51.25260974      49.57798505
