21
Lattice="100.0 0.0 0.0 0.0 100.0 0.0 0.0 0.0 100.0" Properties=species:S:1:pos:R:3 Energy=-406272.5396782879 pbc="F F F"
C       52.46175966      49.71843454      50.07685760
C       51.28186965      52.05735429      49.42449303
C       53.06870051      50.63377028      49.16252032
C       52.43488835      51.77912761      48.77959718
C       46.94166834      51.64681788      51.02377192
C       51.27698462      50.03234063      50.80408704
C       50.66589159      51.24596670      50.41473323
O       49.52243091      48.76242598      52.04155923
O       48.16267400      50.50384405      49.20363526
O       51.19838600      47.70984341      51.13276675
C       50.52758552      48.87018424      51.42085440
C       48.20657019      51.12653146      50.17879008
O       49.46087426      51.71759089      50.81732705
H       50.72895440      47.01028621      51.55990720
H       53.03132809      48.82130612      50.31480220
H       50.73971734      52.98971379      49.11624105
H       53.93650095      50.32860745      48.52322964
H       52.90677968      52.33935507      47.95844077
H       46.69256647      50.72481172      51.65659909
H       47.15908247      52.60734422      51.65195709
H       46.06349905      51.97754203      50.35784572
