21
Lattice="100.0 0.0 0.0 0.0 100.0 0.0 0.0 0.0 100.0" Properties=species:S:1:pos:R:3 Energy=-406269.84324118047 pbc="F F F"
C       52.30394695      49.76774834      49.59135690
C       50.83345807      51.94767311      49.21427829
C       52.86163191      50.80343214      48.92623528
C       52.05841595      51.79848487      48.60530425
C       46.79363582      51.60752153      50.64306925
C       51.04683709      49.78229498      50.14011651
C       50.28180831      50.97071217      49.94687688
O       49.36004997      48.07997047      50.82966307
O       48.20934588      52.08908307      48.80180080
O       51.39466824      48.07879313      51.84316065
C       50.45872377      48.63130555      50.96024233
C       48.05106258      51.65125393      49.88302700
O       49.10269178      51.14215113      50.74104916
H       50.92512388      47.15592462      51.87619086
H       52.87505240      48.83072582      49.67170924
H       50.25614469      52.84407538      48.93992253
H       53.91065932      50.73852493      48.47799120
H       52.37882640      52.74039237      48.12380914
H       46.08934068      52.35604226      50.06262713
H       46.31266635      50.56874358      50.59164819
H       46.83163683      51.95116122      51.72488110
