21
Lattice="100.0 0.0 0.0 0.0 100.0 0.0 0.0 0.0 100.0" Properties=species:S:1:pos:R:3 Energy=-406265.49739601585 pbc="F F F"
C       52.49165648      49.45672472      49.66336246
C       51.08451348      51.93453460      49.58249064
C       52.92498265      50.40254553      48.69902434
C       52.26880185      51.75333878      48.73397053
C       46.91703364      51.51521203      50.68182377
C       51.29849276      49.67354086      50.37650834
C       50.46025721      50.87582614      50.24531015
O       49.60927893      47.99554487      50.81029025
O       48.27116364      51.84185194      48.78498900
O       51.53731336      47.91287298      51.90272594
C       50.70161046      48.49957711      51.05656627
C       48.10064822      51.39964291      49.87718189
O       49.14337251      50.92876676      50.67287643
H       51.03312632      47.11257089      52.01341186
H       53.02415283      48.45926494      49.78947737
H       50.55510036      52.88742911      49.78739856
H       53.75649460      50.07812533      48.09254992
H       52.42078768      52.62784425      47.98658814
H       46.49156696      52.36601127      50.26072389
H       46.24350540      50.66927663      50.54146191
H       47.02479086      51.46853099      51.73259768
