21
Lattice="100.0 0.0 0.0 0.0 100.0 0.0 0.0 0.0 100.0" Properties=species:S:1:pos:R:3 Energy=-406265.61189526744 pbc="F F F"
C       52.30047801      49.48567322      49.87971292
C       50.95169196      51.92256770      49.26446732
C       52.97836703      50.50395821      49.15194578
C       52.29824696      51.77839042      48.79414713
C       46.86303100      51.78911422      50.81366847
C       50.93502776      49.67759362      50.25348010
C       50.36492731      50.92786277      50.06233473
O       49.31497890      48.67948449      51.74197864
O       47.81760875      50.38402541      49.16886294
O       51.24470205      47.72078274      51.39615774
C       50.36845232      48.73633619      51.13451679
C       48.04140527      51.06330792      50.20505410
O       49.21657415      51.44682530      50.71462254
H       50.67915464      47.00602906      51.82167128
H       52.70231729      48.46529393      49.96179275
H       50.44925577      52.99397094      49.25827167
H       54.04643681      50.26363513      48.79159584
H       52.80789341      52.55411693      48.17832872
H       45.95356319      51.39960069      50.87952271
H       46.92321168      52.29262585      51.76024135
H       46.76912320      52.61935046      50.10153758
