21
Lattice="100.0 0.0 0.0 0.0 100.0 0.0 0.0 0.0 100.0" Properties=species:S:1:pos:R:3 Energy=-406259.7710346808 pbc="F F F"
C       52.51754213      49.58234991      50.00133130
C       51.24986497      51.93942242      49.45941176
C       53.12039943      50.44389843      49.04148759
C       52.43253131      51.71339248      48.76197217
C       46.97689618      52.02716498      50.67070180
C       51.18597522      49.80362519      50.54403288
C       50.50287933      51.09001986      50.24564157
O       49.64928487      48.79428283      52.04041083
O       47.76224876      50.09297103      49.51962260
O       51.22382714      47.48873084      51.28863375
C       50.60283773      48.75153359      51.25271864
C       47.94133662      51.07248594      50.10569563
O       49.21351450      51.45428221      50.66890584
H       50.62005630      46.98971351      51.87174393
H       52.94351258      48.61653521      50.21639889
H       50.72509807      53.00576823      49.43144374
H       54.04895329      50.01957088      48.56610704
H       52.82773486      52.55629455      47.95958917
H       46.70678002      51.94738587      51.77178161
H       47.45731200      53.01028649      50.52263308
H       45.95104671      51.89945374      50.34977243
