21
Lattice="100.0 0.0 0.0 0.0 100.0 0.0 0.0 0.0 100.0" Properties=species:S:1:pos:R:3 Energy=-406269.24676626106 pbc="F F F"
C       52.46336219      49.68521292      49.60779029
C       51.03306363      52.05991804      49.41437731
C       52.97291359      50.75806856      48.81510992
C       52.27562795      51.98148805      48.91722947
C       47.14794889      51.70170275      50.65385361
C       51.19460633      49.79083165      50.36355303
C       50.53351092      50.99157359      50.14702503
O       49.47587108      48.60783661      51.60638813
O       48.31146219      51.08974095      48.73552877
O       51.44326671      47.51874063      51.39756543
C       50.58516266      48.62574898      51.21355719
C       48.33137270      51.36343323      49.88450220
O       49.33786740      51.24399180      50.80797882
H       50.81802684      46.99841771      51.89600165
H       53.08212115      48.79578218      49.66379270
H       50.51121813      53.00158229      49.52617861
H       53.82301802      50.71761403      48.10399835
H       52.72897897      52.91126662      48.66692814
H       47.22349073      51.03663127      51.44226404
H       47.26656712      52.77436765      50.84827613
H       46.17698198      51.46606961      50.11701551
