21
Lattice="100.0 0.0 0.0 0.0 100.0 0.0 0.0 0.0 100.0" Properties=species:S:1:pos:R:3 Energy=-406264.9324923733 pbc="F F F"
C       52.13669276      49.61666031      49.99845420
C       50.50697851      51.26131244      48.30637471
C       52.70351929      50.63506760      49.11794661
C       51.86952539      51.56866109      48.30634383
C       46.57949022      50.87276352      50.33554790
C       50.69667773      49.45102496      49.88017846
C       49.90628259      50.28346402      48.98741324
O       48.92778358      48.76460657      51.34335941
O       48.68718105      51.72346244      51.03283517
O       50.96226263      48.00457831      51.72476453
C       50.10546830      48.65782308      51.02782310
C       48.01199337      51.13307117      50.25650789
O       48.43871237      50.43945228      48.99040886
H       50.46558426      47.67999476      52.46114284
H       52.84616678      49.03982711      50.65488536
H       49.81257866      51.87926131      47.80786172
H       53.79582845      50.72692875      49.14008957
H       52.23479870      52.32000524      47.53885716
H       46.47590231      49.75724734      50.38732332
H       46.20417155      51.39855214      51.24889786
H       46.27704442      51.30200605      49.36631452
