21
Lattice="100.0 0.0 0.0 0.0 100.0 0.0 0.0 0.0 100.0" Properties=species:S:1:pos:R:3 Energy=-406275.6451240067 pbc="F F F"
C       52.54679955      49.60146910      49.90683396
C       51.07614709      51.87870969      49.24306883
C       53.09456682      50.57640388      49.09949985
C       52.35755664      51.69223164      48.76771307
C       47.01946095      51.95310292      50.79180279
C       51.26373950      49.79368291      50.35336337
C       50.46062511      50.84226463      49.94786558
O       49.57962572      48.47076719      51.53522329
O       47.98271749      51.20449498      48.77669957
O       51.61249226      47.71795318      51.11381788
C       50.69349345      48.70916591      51.08369700
C       48.15918345      51.41518793      49.97407823
O       49.25687374      51.07768447      50.67845877
H       51.24496939      47.00748293      51.64417055
H       53.12077604      48.78785596      50.32235767
H       50.52946732      52.79996924      49.08531317
H       54.06860449      50.39067767      48.64914766
H       52.76745645      52.46907604      48.15793484
H       47.20258804      51.83208685      51.84206516
H       46.88728987      52.99251707      50.75692116
H       45.93139551      51.56259965      50.40154887
