21
Lattice="100.0 0.0 0.0 0.0 100.0 0.0 0.0 0.0 100.0" Properties=species:S:1:pos:R:3 Energy=-406249.70989404595 pbc="F F F"
C       52.30565787      49.74170207      49.88556201
C       50.73645328      51.33386159      48.15451425
C       52.86517685      50.62057715      49.06553182
C       52.07618538      51.59355978      48.31756547
C       46.76178677      50.97005528      50.30361465
C       50.95455687      49.39120571      49.79658543
C       50.09094637      50.19705698      48.97085895
O       49.14891912      48.77546722      51.25212928
O       48.90031791      51.72690028      50.96313888
O       51.17367704      48.04280843      51.67423264
C       50.29394969      48.74528031      50.91358773
C       48.20942532      51.15039137      50.13290999
O       48.66003071      50.43741733      48.92056868
H       50.90378027      47.68077006      52.48528606
H       52.84954865      49.16809825      50.60719335
H       50.10603100      51.99161308      47.51471394
H       53.94357223      50.55577329      49.09927811
H       52.55091206      52.31922994      47.59549843
H       46.60306477      49.80821995      50.44343093
H       46.33721227      51.38760366      51.11263228
H       46.05642777      51.17067604      49.36956348
