21
Lattice="100.0 0.0 0.0 0.0 100.0 0.0 0.0 0.0 100.0" Properties=species:S:1:pos:R:3 Energy=-406261.47845982783 pbc="F F F"
C       52.55255132      49.90754824      50.17073854
C       50.98759882      52.10743751      49.53557268
C       53.08340427      50.87831148      49.33367585
C       52.24806116      51.95464723      48.84410634
C       46.79643862      51.49075666      51.22707117
C       51.15970481      49.99263440      50.77153118
C       50.32112938      51.20772216      50.43862514
O       49.45369922      48.89350271      52.02659179
O       47.87501052      52.06044620      49.00557509
O       51.00190363      47.64437278      51.20918276
C       50.52613803      48.83698291      51.43488089
C       47.86870978      51.66899655      50.11321095
O       49.09487822      51.28387133      50.86744517
H       50.42294215      47.04209132      51.79625013
H       53.00894373      48.97270306      50.37533017
H       50.28259000      52.95790868      49.31281836
H       54.07582712      50.64378047      48.89651873
H       52.40764236      52.57551005      47.97340821
H       45.92417288      51.27595919      50.62579374
H       47.27911857      50.65465259      51.67238254
H       46.58981962      52.43780392      51.86691901
