21
Lattice="100.0 0.0 0.0 0.0 100.0 0.0 0.0 0.0 100.0" Properties=species:S:1:pos:R:3 Energy=-406260.9973893758 pbc="F F F"
C       52.64219342      49.25112039      49.95776932
C       51.15874978      51.49799238      49.10588121
C       53.29062936      50.12621481      49.16434199
C       52.52923170      51.32982966      48.78465829
C       46.75861186      50.72504612      50.87149242
C       51.26241731      49.44489207      50.27320032
C       50.49569718      50.48533259      49.89096629
O       51.22668005      47.59859725      51.70921074
O       47.90412685      51.19967759      48.78843193
O       49.27708862      48.45411693      50.89589180
C       50.68682738      48.42306855      51.03598382
C       47.96895933      50.91285288      49.88414102
O       49.24904262      50.70062942      50.58364615
H       48.98139240      47.69456685      51.50976333
H       53.26639559      48.39790302      50.32029361
H       50.53869469      52.40140275      48.86939703
H       54.25120020      50.05809621      48.68075276
H       53.08916656      52.09689319      48.23262544
H       45.74879980      50.61719403      50.41872199
H       47.06990696      49.81305403      51.40812693
H       46.66291268      51.48167989      51.76737456
