21
Lattice="100.0 0.0 0.0 0.0 100.0 0.0 0.0 0.0 100.0" Properties=species:S:1:pos:R:3 Energy=-406268.37507512857 pbc="F F F"
C       52.08895007      49.20208363      49.37739281
C       51.26390368      51.92769518      49.33117563
C       52.99461609      50.22522554      48.70736280
C       52.60794625      51.54488232      48.86190915
C       47.01113978      51.00596217      50.90835397
C       50.89930242      49.55217120      50.01308692
C       50.42325572      50.90227789      49.82198497
O       49.31237620      48.89675715      51.67627377
O       47.72009526      50.14489760      48.86414849
O       50.96170098      47.46231609      51.05599136
C       50.26333262      48.66377153      51.03871177
C       48.02030256      50.73569742      49.88222098
O       49.17290808      51.15658929      50.33563331
H       50.79058426      47.10078446      51.93348146
H       52.43146916      48.19051156      49.43615394
H       50.81056314      52.89921554      49.10502461
H       53.86710065      49.96155511      48.06651854
H       53.10421756      52.29528621      48.32019893
H       46.13289935      50.82360706      50.37530214
H       47.10606530      50.06310549      51.54629600
H       47.21523484      51.85334060      51.60143451
