21
Lattice="100.0 0.0 0.0 0.0 100.0 0.0 0.0 0.0 100.0" Properties=species:S:1:pos:R:3 Energy=-406275.70361148845 pbc="F F F"
C       52.35859533      49.28176040      49.55004600
C       51.29609555      51.86430764      49.26998245
C       52.99694017      50.23954807      48.87033976
C       52.50089514      51.51716427      48.65832542
C       46.95703110      51.16639539      50.80948193
C       51.10286642      49.57307709      50.03775132
C       50.55796279      50.83432894      50.01006536
O       49.20325433      48.53524662      51.27274488
O       48.21433718      50.39577356      48.87621650
O       51.41270687      47.84377055      51.35160730
C       50.41823950      48.55714577      50.89494949
C       48.22617377      50.83708204      49.99280389
O       49.37279854      51.21238443      50.71683216
H       51.12678909      47.18076177      52.01021464
H       52.79989094      48.32158309      49.87633190
H       50.75333735      52.81923823      49.10252545
H       53.91615290      49.94318615      48.43112120
H       52.96563227      52.34203293      47.98978536
H       46.08384710      50.85424852      50.05638601
H       46.95925464      50.53737595      51.72262147
H       46.76708686      52.20482555      51.08501582
