21
Lattice="100.0 0.0 0.0 0.0 100.0 0.0 0.0 0.0 100.0" Properties=species:S:1:pos:R:3 Energy=-406276.9388709891 pbc="F F F"
C       52.45315798      50.01828091      50.01613006
C       50.95778981      52.16854018      49.34928108
C       52.96241886      50.96245727      49.18084632
C       52.16617404      51.98536458      48.76055965
C       46.74240292      51.99791773      50.89856359
C       51.20193526      50.11518093      50.55014666
C       50.41864175      51.23383315      50.18069976
O       49.50474107      48.85180889      51.82928050
O       48.03972325      51.71855714      48.78167690
O       51.29680470      47.78897953      51.04958393
C       50.54729742      48.92678488      51.19483489
C       48.03447823      51.68253288      49.97747248
O       49.20835723      51.45037466      50.77804535
H       50.94013907      47.07279107      51.64628121
H       53.07599392      49.04653198      50.23331734
H       50.42507586      52.92720893      48.84963132
H       53.91890039      50.80261083      48.77002184
H       52.52174780      52.71323607      48.05925796
H       46.13130238      52.80161357      50.42956922
H       46.08109961      51.04379985      50.61670468
H       47.08683290      52.09602328      51.94074204
