21
Lattice="100.0 0.0 0.0 0.0 100.0 0.0 0.0 0.0 100.0" Properties=species:S:1:pos:R:3 Energy=-406263.7711306668 pbc="F F F"
C       52.40447073      50.06317274      50.12034063
C       50.67120991      51.43876950      48.38399350
C       52.87691910      51.03577977      49.28073588
C       52.05382813      51.74629082      48.42151065
C       46.69836381      51.40981944      50.16836260
C       51.04015958      49.99086699      50.24716779
C       50.09126175      50.71402167      49.38448571
O       49.16077553      48.98315376      51.35249424
O       48.90697662      52.16603347      51.34815388
O       51.31967776      48.32524630      51.82060818
C       50.33570249      49.07468394      51.20390244
C       48.20945089      51.67052211      50.45603336
O       48.72669916      50.68627507      49.44913684
H       50.91704135      47.64468627      52.44508522
H       52.92529599      49.35594907      50.80987066
H       50.16099472      51.98143303      47.55491478
H       53.83827156      51.29626197      49.37373863
H       52.57358960      52.29138650      47.64939451
H       46.16172844      52.35531373      50.46044050
H       46.48964768      51.13365728      49.08382225
H       46.29462246      50.59378051      50.92784933
