21
Lattice="100.0 0.0 0.0 0.0 100.0 0.0 0.0 0.0 100.0" Properties=species:S:1:pos:R:3 Energy=-406270.47489925264 pbc="F F F"
C       52.34694665      49.02651317      48.94863476
C       51.17304858      51.57645459      49.04118105
C       52.91216361      50.03991694      48.20101436
C       52.32050551      51.29032806      48.26209038
C       47.03155591      50.57988458      50.38577593
C       51.14585485      49.24818800      49.74561111
C       50.51341054      50.50778399      49.58493020
O       49.49067073      47.36454812      50.20142452
O       48.25762610      51.29257709      48.43348201
O       50.97722898      48.03988479      51.77249025
C       50.44285398      48.09504403      50.49763116
C       48.20967791      50.86489026      49.54755663
O       49.30722627      50.58638242      50.22233962
H       50.27688118      47.64022755      52.39945772
H       52.61995778      47.90097262      48.83564926
H       50.80807578      52.63545188      49.15622120
H       53.79446803      49.84269202      47.60054228
H       52.66067038      52.09538148      47.62555125
H       46.20553197      50.51403479      49.74180874
H       47.37129744      49.67599395      50.83290494
H       47.14942820      51.31823149      51.16279148
