21
Lattice="100.0 0.0 0.0 0.0 100.0 0.0 0.0 0.0 100.0" Properties=species:S:1:pos:R:3 Energy=-406271.04714282154 pbc="F F F"
C       52.24619455      50.17545168      50.47022183
C       50.68307115      51.60141080      48.61704650
C       52.97878527      50.97033912      49.44002788
C       52.11108407      51.70595364      48.53629002
C       46.62302598      50.95877247      50.50265394
C       50.86692653      50.28104539      50.57236199
C       50.07171878      50.89237235      49.65021169
O       49.06644474      49.45478599      52.08873984
O       48.47543109      52.35128881      51.41619194
O       50.69569375      48.12975532      51.36681713
C       50.12532326      49.30649954      51.41947439
C       48.03707432      51.44958183      50.76360912
O       48.67915019      50.76956431      49.67827251
H       50.21663918      47.45610538      51.90106857
H       52.74054739      49.64505850      51.26639021
H       49.91507273      52.15630372      48.01052699
H       54.04953373      51.06979782      49.66307068
H       52.51893796      52.54389462      47.91126016
H       46.31667437      50.03503370      50.97748910
H       45.95046627      51.76283013      50.89464732
H       46.63802437      50.81279149      49.44290590
