21
Lattice="100.0 0.0 0.0 0.0 100.0 0.0 0.0 0.0 100.0" Properties=species:S:1:pos:R:3 Energy=-406267.91355823434 pbc="F F F"
C       52.40065563      49.36844590      49.58319568
C       51.01058685      51.71985697      49.26126260
C       52.92217675      50.37618404      48.74607837
C       52.26022512      51.52799861      48.74480428
C       46.80123002      51.32433198      50.22505029
C       51.12021850      49.47207754      50.05532368
C       50.42990873      50.63245608      49.88569838
O       51.65055268      47.68049938      51.42768414
O       48.41224874      50.72284871      48.32296032
O       49.47633051      47.95703810      50.94526933
C       50.80832804      48.30794750      50.87106025
C       48.11552644      50.96060918      49.41218630
O       49.14517477      50.69164754      50.44833372
H       49.52015811      47.38216760      51.74707528
H       52.90140876      48.48803002      49.79515037
H       50.37137708      52.61783240      49.19200298
H       53.95027730      50.31511415      48.40730540
H       52.67821672      52.36268932      48.25292472
H       46.04972270      50.93695367      49.49859616
H       46.83267737      50.89578088      51.22128634
H       46.51275631      52.40327812      50.30899303
