21
Lattice="100.0 0.0 0.0 0.0 100.0 0.0 0.0 0.0 100.0" Properties=species:S:1:pos:R:3 Energy=-406270.155672584 pbc="F F F"
C       52.22529159      49.79715933      49.93087047
C       50.75900748      51.38480991      48.11423032
C       52.88593153      50.66275153      49.00443815
C       52.14858353      51.48340162      48.09834115
C       46.70899280      50.66968083      50.31335010
C       50.83305052      49.71286448      49.94896426
C       50.11836194      50.59691757      49.12211120
O       49.00139000      48.96243881      51.21105099
O       48.74200343      51.72554243      51.04265540
O       50.86745442      47.87868154      51.61018034
C       50.13512777      48.79209903      50.87302739
C       48.07319362      51.09912271      50.20082183
O       48.75792965      50.45828155      49.16476176
H       50.36990126      47.75981829      52.47393027
H       52.78133840      49.06002891      50.36958134
H       50.24002268      52.07697027      47.60086012
H       53.95191979      50.53574193      48.97374109
H       52.86760000      52.24018171      47.52606973
H       46.90524633      49.72642763      50.85926301
H       46.04808021      51.29976188      50.87672714
H       46.30214572      50.45109243      49.31459710
