21
Lattice="100.0 0.0 0.0 0.0 100.0 0.0 0.0 0.0 100.0" Properties=species:S:1:pos:R:3 Energy=-406263.8627139125 pbc="F F F"
C       52.04826721      49.45835501      49.86626443
C       50.98315428      51.89951066      49.08494994
C       52.81239753      50.30737746      49.07076033
C       52.28046804      51.52940186      48.63775089
C       47.09030616      51.31422295      51.28491775
C       50.77005303      49.77145869      50.35088057
C       50.24873786      50.98297121      49.91394869
O       48.88303022      48.71212545      51.38470027
O       47.56124776      50.18133208      49.07210329
O       50.94051206      47.64164162      51.33749871
C       50.07323417      48.68468182      51.02494628
C       47.87773572      50.72206092      50.09969216
O       49.08490722      51.35724783      50.46080594
H       50.45858908      47.09484263      51.95747744
H       52.59450702      48.55350675      50.26804099
H       50.62741223      52.90515737      48.75669939
H       53.84828997      50.06902781      48.99173589
H       52.88502823      51.98007839      47.88428818
H       46.87772331      50.23866947      51.86847598
H       47.79040628      51.80437615      52.11571182
H       46.15171003      51.71956445      50.95326954
