21
Lattice="100.0 0.0 0.0 0.0 100.0 0.0 0.0 0.0 100.0" Properties=species:S:1:pos:R:3 Energy=-406263.7938439219 pbc="F F F"
C       52.51416037      49.87989920      50.11588713
C       50.99404261      51.70145069      48.62953737
C       53.11068851      50.47799262      49.04110128
C       52.35227755      51.37592638      48.27943361
C       46.61018855      50.83796486      50.24927028
C       51.10664790      49.92998803      50.38224656
C       50.34277702      50.97512067      49.71913865
O       49.17828360      48.95144075      51.38809728
O       48.44222735      51.88670593      51.57988123
O       51.13746557      48.15985631      51.97242263
C       50.36245478      49.05059960      51.23465980
C       48.00349896      51.36437464      50.57456608
O       48.96788930      50.97354454      49.43258811
H       50.43312778      47.70742013      52.42878192
H       53.22991473      49.30316510      50.74627754
H       50.34934607      52.29257987      47.93242740
H       54.22486763      50.57556103      48.94960143
H       53.03264785      51.81607302      47.57121808
H       45.77513237      51.54455825      50.46246602
H       46.36156434      50.51488187      49.28142360
H       46.40354317      50.03747884      51.09602349
