21
Lattice="100.0 0.0 0.0 0.0 100.0 0.0 0.0 0.0 100.0" Properties=species:S:1:pos:R:3 Energy=-406265.4150907186 pbc="F F F"
C       52.35879215      49.51994169      49.45394095
C       50.77768592      51.56517922      48.24298636
C       52.92735152      50.60082177      48.71069245
C       52.20960596      51.72346583      48.23304262
C       46.61299204      50.67358254      49.89848352
C       50.96122587      49.60587070      49.79418120
C       50.23362261      50.55173887      49.03073149
O       49.07962880      49.25272737      51.29767320
O       48.26639113      52.12386650      50.83445275
O       50.92873272      47.76510592      51.49247555
C       50.19751052      48.78809457      50.82944438
C       47.95902606      51.23723537      50.10037119
O       48.85440300      50.55030433      49.17500074
H       50.22986482      47.44007364      52.20466186
H       52.88054815      48.56298834      49.68058520
H       50.09941174      52.27962286      47.80327320
H       53.97402119      50.62153444      48.57489653
H       52.78872164      52.55992636      47.79533814
H       46.02597881      51.33381146      50.42439571
H       46.38220074      50.52646507      48.84645968
H       46.67393157      49.83113277      50.53280599
