21
Lattice="100.0 0.0 0.0 0.0 100.0 0.0 0.0 0.0 100.0" Properties=species:S:1:pos:R:3 Energy=-406265.36231669557 pbc="F F F"
C       52.25832460      49.14119399      48.88082533
C       50.90002834      51.57095789      48.69075421
C       52.90431060      50.24835180      48.24933990
C       52.17375029      51.48769777      48.22165960
C       46.75648996      50.93720611      50.03485155
C       51.07307753      49.32714446      49.63187190
C       50.41803939      50.62735802      49.53292245
O       49.51862187      47.48534133      50.17432129
O       48.29111874      51.76258363      48.46686661
O       51.14196153      48.15136200      51.57372111
C       50.47164606      48.21208840      50.46209796
C       48.14278484      51.17974969      49.46751762
O       49.20768421      50.56950489      50.17213795
H       50.66672388      47.65439890      52.35001295
H       52.84841402      48.18995201      49.01700424
H       50.40519720      52.51465867      48.56350205
H       53.85913357      50.34936561      47.69455034
H       52.64310007      52.20659811      47.64998705
H       46.20182755      51.83507682      50.22053119
H       46.14086643      50.65496377      49.21057769
H       46.52578691      50.17457539      50.85533019
