21
Lattice="100.0 0.0 0.0 0.0 100.0 0.0 0.0 0.0 100.0" Properties=species:S:1:pos:R:3 Energy=-406280.3244640374 pbc="F F F"
C       52.34678282      49.46971098      49.66912195
C       51.31840109      52.06532517      49.23075176
C       53.07119752      50.34027276      48.82462767
C       52.51660453      51.64338813      48.64111480
C       47.14133831      50.89017989      50.98947243
C       51.20489751      49.80809563      50.33264102
C       50.69159874      51.14624032      50.10170427
O       49.29593225      48.90188205      51.50968801
O       48.16626574      50.53264862      48.79888549
O       51.10865623      47.68167319      50.97896421
C       50.42208521      48.81030207      51.05097911
C       48.23378837      50.97396954      49.90350617
O       49.41524750      51.50592980      50.59699850
H       50.80311418      46.97322897      51.51418451
H       52.76989912      48.48165859      49.76429982
H       50.93639636      53.02677103      49.04387847
H       53.90847571      49.94988008      48.19256117
H       53.12066837      52.36981566      48.10276639
H       47.16119431      51.48733864      51.89723361
H       46.09152429      51.06387302      50.67541838
H       47.03716446      49.88849068      51.38104343
