21
Lattice="100.0 0.0 0.0 0.0 100.0 0.0 0.0 0.0 100.0" Properties=species:S:1:pos:R:3 Energy=-406265.0175118774 pbc="F F F"
C       52.17790850      49.03153554      49.12045443
C       51.30634373      51.71942629      48.85332098
C       52.90633186      49.88601127      48.29732978
C       52.57930806      51.29420087      48.26716871
C       47.02172561      51.30282823      49.75684055
C       51.00193460      49.42554655      49.78210129
C       50.56713069      50.80267577      49.52280819
O       51.01251435      47.22257699      50.39097879
O       48.40428901      49.30629253      49.24720494
O       50.00931828      48.66349011      51.81351502
C       50.64459457      48.36616722      50.68063896
C       48.23559205      50.43658854      49.75856615
O       49.40514109      51.23657237      50.03428323
H       49.81883682      47.81338002      52.24091179
H       52.56873473      48.12349451      49.39173211
H       51.06066693      52.77742301      48.97665878
H       53.79175562      49.28922159      47.98282225
H       53.19486772      52.00456225      47.75908821
H       46.20824438      50.63087902      49.31688553
H       46.59063015      51.51252521      50.78896281
H       47.34539232      52.22853240      49.18199001
