15
Lattice="100.0 0.0 0.0 0.0 100.0 0.0 0.0 0.0 100.0" Properties=species:S:1:pos:R:3 Energy=-170025.33393176345 pbc="F F F"
C       52.41659509      49.97755928      50.10343145
C       50.82617308      49.90355208      50.13188109
C       50.08041844      49.05539966      50.94024818
C       48.70293753      49.02370258      50.75497846
C       48.06885411      49.98695371      49.87326517
C       48.94972353      50.88435174      49.04602168
C       50.24929889      50.77284154      49.28770193
H       52.67846592      50.11104321      48.95073992
H       52.61338557      50.89069881      50.78231234
H       52.97739127      49.06310050      50.66217501
H       50.50682062      48.27585317      51.51228814
H       48.02387291      48.39056025      51.45297345
H       47.02260873      49.83779656      49.75899505
H       48.52641600      51.72414683      48.48771186
H       50.99754090      51.32415342      48.67682313
