15
Lattice="100.0 0.0 0.0 0.0 100.0 0.0 0.0 0.0 100.0" Properties=species:S:1:pos:R:3 Energy=-170027.51331098276 pbc="F F F"
C       52.44937090      49.88365161      49.96989440
C       50.91175251      49.93400760      50.13552682
C       50.13963823      48.93214662      50.82702952
C       48.70098652      49.09831963      50.72852505
C       48.12470435      49.91600728      49.73965358
C       48.95479416      50.75417752      48.93336728
C       50.25407480      50.81712268      49.30471921
H       52.96968365      49.48148512      50.84667239
H       52.55965239      49.10399020      49.12618861
H       52.75274235      50.94487299      49.66069354
H       50.67331860      48.32745111      51.67027765
H       48.00185843      48.43639884      51.42955854
H       47.03031635      50.16761309      49.68064416
H       48.63732092      51.46760554      48.32972235
H       50.77130902      51.67254889      48.81084826
