15
Lattice="100.0 0.0 0.0 0.0 100.0 0.0 0.0 0.0 100.0" Properties=species:S:1:pos:R:3 Energy=-170034.86849069025 pbc="F F F"
C       52.53978174      50.13433556      50.21578389
C       50.99380348      49.97114589      50.17450539
C       50.20835953      49.09557482      50.91304349
C       48.82476512      49.29976802      50.82936612
C       48.22509851      50.09996246      49.89657849
C       49.02077179      50.93075799      49.17719318
C       50.35161571      50.91543879      49.33338497
H       52.65919595      50.91792362      49.49371220
H       52.85354980      50.58220656      51.23307411
H       52.93145254      49.21964449      49.78052067
H       50.77678642      48.33256187      51.48940249
H       48.11188304      48.82466466      51.53087514
H       47.06854746      50.34066742      49.96320309
H       48.59342881      51.66743813      48.46912486
H       51.01714944      51.58141718      48.73081380
