15
Lattice="100.0 0.0 0.0 0.0 100.0 0.0 0.0 0.0 100.0" Properties=species:S:1:pos:R:3 Energy=-170034.40409865754 pbc="F F F"
C       52.29966004      50.11483906      50.26844570
C       50.72172692      50.03575520      50.12898306
C       49.97045192      49.21267490      50.91285398
C       48.57619923      49.25484300      50.83897625
C       48.04023832      50.12443690      49.92078016
C       48.75477879      51.01759866      49.17576349
C       50.11077084      50.97419524      49.27547301
H       52.74700368      51.13485093      50.31899472
H       52.52882925      49.80353029      51.35146590
H       52.98459826      49.47890129      49.53416036
H       50.41593829      48.30321045      51.49860885
H       47.85641045      48.61380712      51.36968347
H       47.01540174      49.86649626      49.73395487
H       48.25839282      51.69678955      48.52594056
H       50.60048740      51.58329858      48.50139115
