15
Lattice="100.0 0.0 0.0 0.0 100.0 0.0 0.0 0.0 100.0" Properties=species:S:1:pos:R:3 Energy=-170038.6086049404 pbc="F F F"
C       52.52157846      50.00622739      50.20119315
C       50.92878910      49.93960822      49.95862570
C       50.10582674      49.03602425      50.72086959
C       48.68551278      49.12821046      50.73588293
C       48.06606728      50.05988927      49.80987899
C       48.84250663      50.86493636      49.01732144
C       50.24794867      50.84413219      49.12357116
H       52.93648468      48.91677851      50.26981897
H       53.02468237      50.60087245      49.33652858
H       52.75094231      50.65572534      51.13871763
H       50.56030598      48.38597311      51.57610149
H       47.98682137      48.56422229      51.26236372
H       46.97531763      50.13028268      49.54778941
H       48.31803093      51.58245302      48.42389851
H       50.75009572      51.61402689      48.59558968
