15
Lattice="100.0 0.0 0.0 0.0 100.0 0.0 0.0 0.0 100.0" Properties=species:S:1:pos:R:3 Energy=-170028.72826252223 pbc="F F F"
C       52.38268603      50.05038074      50.25284052
C       50.81854988      49.98512469      50.13083618
C       50.00519770      49.08963580      50.98325523
C       48.64286820      49.14135671      50.81458298
C       48.04143255      50.11428330      49.92685413
C       48.76642792      50.95100406      49.12154400
C       50.15998643      50.89497902      49.27905154
H       52.91057404      48.97525757      50.31694601
H       52.79087849      50.59591226      49.40509158
H       52.53337232      50.65555145      51.26287830
H       50.63302792      48.24711929      51.42200529
H       47.91178135      48.62051215      51.35637609
H       47.08942596      50.24796522      50.00475842
H       48.30777486      51.75288071      48.57799471
H       50.78938851      51.57537316      48.61472563
