15
Lattice="100.0 0.0 0.0 0.0 100.0 0.0 0.0 0.0 100.0" Properties=species:S:1:pos:R:3 Energy=-170032.99747513107 pbc="F F F"
C       52.55164727      50.14030169      50.12462026
C       51.08999719      49.94649759      50.07401174
C       50.31475468      49.16720339      50.87352110
C       48.84008552      49.17545482      50.68414987
C       48.21676733      50.13045492      49.82689573
C       49.03979706      51.02487910      49.05485576
C       50.41487380      50.81858779      49.20565483
H       52.86988998      50.53731449      49.18866827
H       52.73507767      50.71982926      51.01634579
H       52.96063785      49.12153453      50.30969991
H       50.77858504      48.58878809      51.69153027
H       48.26198549      48.37661011      51.12171221
H       47.03936215      50.22551968      49.48820261
H       48.59175709      51.62338989      48.30846973
H       51.10534761      51.50906526      48.71023204
