15
Lattice="100.0 0.0 0.0 0.0 100.0 0.0 0.0 0.0 100.0" Properties=species:S:1:pos:R:3 Energy=-170025.4569737176 pbc="F F F"
C       52.38461095      49.86727459      50.32295077
C       50.81402525      49.97265975      50.12345482
C       50.02935717      49.04200071      50.81140564
C       48.65202070      49.09924940      50.76133025
C       48.07037675      49.99798262      49.98097832
C       48.73100765      50.85707924      49.05932027
C       50.07285188      50.84024650      49.18002055
H       52.89548392      49.05380464      49.69529851
H       52.98282183      50.75184734      50.09585823
H       52.68310713      49.50252826      51.32111034
H       50.27511409      48.23668536      51.53220328
H       48.20147161      48.42207734      51.53753200
H       47.01717817      49.83293582      49.80015708
H       48.12763387      51.52410628      48.46246800
H       50.70628306      51.76331464      48.67416105
