15
Lattice="100.0 0.0 0.0 0.0 100.0 0.0 0.0 0.0 100.0" Properties=species:S:1:pos:R:3 Energy=-170037.52627577123 pbc="F F F"
C       52.39809949      49.64674954      50.29555889
C       50.86734697      49.85602600      50.07225116
C       50.04550079      49.01732761      50.84683787
C       48.65121133      48.88561657      50.79550066
C       48.09246876      49.78889509      49.94310530
C       48.79394626      50.66457113      49.11868119
C       50.17627056      50.76272420      49.23181432
H       52.89115543      50.47367087      50.91867231
H       52.39100778      48.71253501      50.88265734
H       52.94255499      49.65031943      49.28496035
H       50.64072386      48.49082997      51.56413429
H       48.06196861      48.37576374      51.58612920
H       47.05744501      49.73700542      49.58280615
H       48.29234101      51.28425136      48.41387080
H       50.64123473      51.62423626      48.74953825
