15
Lattice="100.0 0.0 0.0 0.0 100.0 0.0 0.0 0.0 100.0" Properties=species:S:1:pos:R:3 Energy=-170032.23316181265 pbc="F F F"
C       52.56854109      50.15682331      50.15360370
C       51.09903345      49.96933512      50.09833399
C       50.33400482      49.18584167      50.89365367
C       48.84592582      49.19947210      50.71822886
C       48.22012887      50.13970970      49.85581055
C       49.05592526      51.03562160      49.08698769
C       50.44816576      50.85145410      49.23062775
H       52.90257970      50.54251975      49.20482699
H       52.78371553      50.77427526      51.07350404
H       52.92109011      49.16574131      50.31954575
H       50.82907516      48.63765591      51.67143882
H       48.30062167      48.41331469      51.14870986
H       47.07890989      50.21139763      49.50624963
H       48.58748220      51.58668531      48.32856118
H       51.10453031      51.54474200      48.71227377
