15
Lattice="100.0 0.0 0.0 0.0 100.0 0.0 0.0 0.0 100.0" Properties=species:S:1:pos:R:3 Energy=-170022.3183052809 pbc="F F F"
C       52.43753907      49.82951579      50.43995135
C       50.82993649      50.00962139      50.26870174
C       50.05321875      49.01875157      50.89912367
C       48.72854214      49.05957403      50.94046534
C       48.09025993      49.95660084      50.11703714
C       48.83812658      50.75457523      49.24402713
C       50.27027229      50.89573511      49.27309015
H       52.82497606      50.32470257      51.38568934
H       52.76190456      48.85367008      50.54270596
H       52.91763865      50.27395616      49.57696752
H       50.62157829      48.25360801      51.28172170
H       48.05772152      48.47373097      51.46099052
H       47.08236135      49.96046486      49.89798622
H       48.14904690      51.18899030      48.53900948
H       50.76817252      51.74639199      48.79821513
