15
Lattice="100.0 0.0 0.0 0.0 100.0 0.0 0.0 0.0 100.0" Properties=species:S:1:pos:R:3 Energy=-170043.43409083883 pbc="F F F"
C       52.40185692      49.86613446      50.30958452
C       50.84351656      50.06084405      50.03800272
C       50.10150522      49.17254338      50.85735213
C       48.71995027      49.13179714      50.74953711
C       48.10469378      50.00714552      49.87652832
C       48.77162157      50.92474806      49.14824125
C       50.19295260      50.94106715      49.12224820
H       52.96320920      49.69269126      49.37259384
H       52.87483584      50.65941857      50.76776100
H       52.49915980      48.95623063      50.94256098
H       50.59524699      48.52063141      51.54555233
H       48.10393490      48.35180423      51.36862470
H       47.03679080      50.02011248      49.87024993
H       48.25346325      51.61458020      48.45444767
H       50.78953544      51.64819577      48.49833298
