15
Lattice="100.0 0.0 0.0 0.0 100.0 0.0 0.0 0.0 100.0" Properties=species:S:1:pos:R:3 Energy=-170030.65345066058 pbc="F F F"
C       52.41045786      49.98964258      50.15238205
C       50.98563903      50.01454131      50.17258266
C       50.28155181      49.12675845      50.98540220
C       48.84158453      49.08420630      50.72515998
C       48.17122899      50.08317180      49.87793095
C       48.94401995      50.97832051      49.06308621
C       50.38962554      50.81298772      49.26864233
H       52.84912472      49.85751785      49.14224940
H       52.91262351      50.78745287      50.70417701
H       52.93727025      49.01939861      50.66434249
H       50.86259075      48.55636211      51.65136285
H       48.11961174      48.29022153      51.12021855
H       47.06272975      49.99393655      49.71332677
H       48.50286697      51.70977847      48.34863715
H       51.06498616      51.49037102      48.70007703
