15
Lattice="100.0 0.0 0.0 0.0 100.0 0.0 0.0 0.0 100.0" Properties=species:S:1:pos:R:3 Energy=-170029.0604727641 pbc="F F F"
C       52.29370665      49.82396592      50.34951495
C       50.80109942      49.89482091      50.10648728
C       49.99541799      48.99050377      50.86631204
C       48.59171256      49.07281712      50.78367746
C       47.98870637      49.91889307      49.94270613
C       48.65267867      50.76995743      49.19408205
C       50.11955358      50.81553211      49.16204057
H       52.54906453      50.75753997      50.78562735
H       52.43270716      49.19578692      51.18056477
H       53.11229259      49.53526772      49.64179855
H       50.42836011      48.27573964      51.56242217
H       47.91071896      48.36484234      51.47286026
H       46.88770741      49.76201390      49.94647683
H       48.17159544      51.46585666      48.43757783
H       50.56764145      51.72426036      48.63779079
