15
Lattice="100.0 0.0 0.0 0.0 100.0 0.0 0.0 0.0 100.0" Properties=species:S:1:pos:R:3 Energy=-170033.8297081541 pbc="F F F"
C       52.49512226      49.92347394      50.15193093
C       51.02357857      49.96953254      50.17567542
C       50.20757081      49.13761244      51.03335378
C       48.82580857      49.16961327      50.84255145
C       48.18450512      49.91433617      49.83401682
C       48.99850975      50.88405605      49.18652931
C       50.40907898      50.94007876      49.39464926
H       52.82944119      50.03906441      49.16975362
H       52.89093338      50.65676938      50.81259056
H       52.75312962      48.98948803      50.56917142
H       50.87484952      48.45719198      51.65438202
H       48.27148668      48.57451520      51.53087445
H       47.10906662      49.83733183      49.67563641
H       48.85185400      51.51694823      48.34561798
H       51.02776829      51.54280802      48.83337677
