15
Lattice="100.0 0.0 0.0 0.0 100.0 0.0 0.0 0.0 100.0" Properties=species:S:1:pos:R:3 Energy=-170028.734788585 pbc="F F F"
C       52.40861105      49.98581893      50.18227480
C       50.99536166      50.05555283      50.18590394
C       50.27701206      49.17294310      51.00554155
C       48.87722334      49.10815284      50.72747035
C       48.15908997      50.10372624      49.91217776
C       48.96404960      50.97689611      49.09237725
C       50.38277475      50.83385264      49.30862329
H       52.85960410      50.03987528      49.16618836
H       52.81233105      50.84944927      50.83577029
H       52.82542380      49.07919487      50.60917368
H       50.89804738      48.47179798      51.57850469
H       48.25058707      48.35695531      51.04865865
H       47.14039590      49.97549358      49.75694843
H       48.53785244      51.64304469      48.42149531
H       50.95113403      51.55947229      48.73655713
