15
Lattice="100.0 0.0 0.0 0.0 100.0 0.0 0.0 0.0 100.0" Properties=species:S:1:pos:R:3 Energy=-170030.28648244558 pbc="F F F"
C       52.44965606      49.88414409      49.98050892
C       50.92142773      49.90579919      50.14815132
C       50.13719920      48.89598232      50.84758925
C       48.71428635      49.06805299      50.74334176
C       48.13316010      49.91266633      49.75683043
C       48.97107836      50.72191602      48.95891906
C       50.28525886      50.79336646      49.30643896
H       52.92645859      49.53324702      50.87982106
H       52.56368669      49.06471329      49.24650616
H       52.74005457      50.88506738      49.65061254
H       50.69718823      48.37142083      51.66787889
H       48.00142554      48.36834445      51.48612336
H       47.07354141      50.12056165      49.75443924
H       48.63878967      51.50051252      48.33212111
H       50.76235298      51.63165555      48.78866533
