15
Lattice="100.0 0.0 0.0 0.0 100.0 0.0 0.0 0.0 100.0" Properties=species:S:1:pos:R:3 Energy=-170034.97314328473 pbc="F F F"
C       52.55581080      49.82615926      50.02092621
C       51.07475570      49.95360373      49.95689489
C       50.33394972      49.11789635      50.79610920
C       48.91135692      49.10537645      50.67929567
C       48.18537049      49.91154834      49.65114760
C       49.05482399      50.81441032      48.95543700
C       50.43322861      50.91561570      49.23170452
H       52.97600987      50.25692324      49.07954226
H       52.89367878      50.50563877      50.79671557
H       52.85923338      48.82961799      50.15269103
H       50.72383147      48.47374286      51.68846859
H       48.25244095      48.51053873      51.40271438
H       47.02399013      49.92052392      49.46645491
H       48.63500068      51.52625714      48.31153141
H       51.02983230      51.46041009      48.47318051
