15
Lattice="100.0 0.0 0.0 0.0 100.0 0.0 0.0 0.0 100.0" Properties=species:S:1:pos:R:3 Energy=-170040.62996183865 pbc="F F F"
C       52.41713518      49.88962263      50.31767208
C       50.82470234      49.96327179      49.99870148
C       50.05235438      49.05050130      50.73776749
C       48.70591306      49.06386585      50.73421483
C       48.06275898      50.01655004      49.89761930
C       48.78353903      50.83220063      49.10853861
C       50.15743346      50.76798663      49.09916026
H       52.55915259      49.04524839      51.03888616
H       53.03815442      49.70390923      49.47423826
H       52.63173542      50.79469323      50.95254604
H       50.56154162      48.36118231      51.43987009
H       48.11255646      48.36641958      51.26524264
H       46.96184558      50.02330165      49.86595079
H       48.29487185      51.63881769      48.60957217
H       50.71935684      51.61394281      48.56012991
