15
Lattice="100.0 0.0 0.0 0.0 100.0 0.0 0.0 0.0 100.0" Properties=species:S:1:pos:R:3 Energy=-170037.0653787002 pbc="F F F"
C       52.36915898      49.82733643      50.18294947
C       50.92912222      49.92609980      49.89898208
C       50.12632938      49.13025585      50.67633346
C       48.72511478      49.02699816      50.62805692
C       48.11510323      49.96127514      49.77077026
C       48.83078004      50.80775736      49.01922242
C       50.22276378      50.83906446      49.02055440
H       52.52643290      49.30463121      51.16689228
H       52.90537303      49.15985452      49.50270540
H       52.91795957      50.79698031      50.20368137
H       50.48998589      48.34783219      51.48264799
H       48.10228399      48.28248949      51.08419208
H       47.08204043      50.03024646      49.78527913
H       48.22988809      51.58610226      48.52487817
H       50.61536949      51.71751051      48.51735201
