15
Lattice="100.0 0.0 0.0 0.0 100.0 0.0 0.0 0.0 100.0" Properties=species:S:1:pos:R:3 Energy=-170027.22109963116 pbc="F F F"
C       52.38236345      49.90649006      49.99654043
C       50.94514929      49.89792379      49.99950885
C       50.12630084      49.06667305      50.77188665
C       48.73167903      48.96498439      50.65008252
C       48.08403149      49.91485079      49.71628708
C       48.98394370      50.80315504      49.03465105
C       50.38299585      50.73156772      49.11059399
H       52.98656880      48.91394847      49.47485922
H       52.84661849      50.72513629      49.37041612
H       52.93909989      49.98805436      51.01473137
H       50.70357322      48.35809706      51.49472845
H       48.02870169      48.33182313      51.26795525
H       47.01343120      50.19249392      49.57536969
H       48.36798178      51.66817687      48.59993586
H       50.98705457      51.33619840      48.50527155
