15
Lattice="100.0 0.0 0.0 0.0 100.0 0.0 0.0 0.0 100.0" Properties=species:S:1:pos:R:3 Energy=-170035.07854122494 pbc="F F F"
C       52.44548520      49.92483153      50.18586364
C       51.00669692      49.90527475      50.00249100
C       50.26994554      49.02056543      50.76461676
C       48.86103747      49.07081816      50.73977126
C       48.22610660      49.92361132      49.82786531
C       49.01156681      50.90067762      49.03474992
C       50.41962274      50.77066630      49.11751120
H       52.82013457      50.50688568      49.41298502
H       52.62502726      50.41111846      51.22136807
H       52.79039561      48.90579252      50.04579208
H       50.79690314      48.28341596      51.52451360
H       48.23551826      48.25956536      51.20045299
H       47.17986543      49.87530973      49.50458598
H       48.57316558      51.74043464      48.55985297
H       51.08044228      51.47181827      48.47548640
