15
Lattice="100.0 0.0 0.0 0.0 100.0 0.0 0.0 0.0 100.0" Properties=species:S:1:pos:R:3 Energy=-170034.91713880465 pbc="F F F"
C       52.46658430      49.83517972      49.95274932
C       50.87436904      49.80989294      49.95021476
C       50.02902078      49.05266902      50.84970361
C       48.61607985      48.97063988      50.58332098
C       48.09426257      49.84209449      49.65111769
C       48.82418604      50.81583064      48.96295091
C       50.18583825      50.76759876      49.12443406
H       52.87650775      48.93514814      49.42222765
H       52.86514914      50.76048718      49.47959326
H       52.99725132      49.76397787      50.95538091
H       50.61124066      48.37240380      51.63944297
H       47.90288656      48.29544168      51.13692660
H       47.00274868      49.87356517      49.51666184
H       48.29444816      51.54835398      48.36055703
H       50.50141651      51.70455832      48.66435076
