15
Lattice="100.0 0.0 0.0 0.0 100.0 0.0 0.0 0.0 100.0" Properties=species:S:1:pos:R:3 Energy=-170026.12911016762 pbc="F F F"
C       52.34681608      50.04625534      50.10072570
C       50.85595286      49.88954869      49.95200175
C       50.06314103      48.91112801      50.73291742
C       48.66607716      49.12843565      50.60622287
C       48.09400562      50.06253612      49.80306119
C       48.81940722      50.88339036      48.91020850
C       50.17543951      50.77430989      49.03176585
H       52.87517324      50.96414691      49.63567020
H       52.72444309      50.30520823      51.16634702
H       52.96986207      49.13333039      49.88511331
H       50.34748910      48.40489066      51.82033038
H       48.12138699      48.55675667      51.37449251
H       47.03013793      49.90786389      49.77448404
H       48.33441090      51.59510934      48.17966962
H       50.77698535      51.46816362      48.51360712
