15
Lattice="100.0 0.0 0.0 0.0 100.0 0.0 0.0 0.0 100.0" Properties=species:S:1:pos:R:3 Energy=-170023.72126026778 pbc="F F F"
C       52.40754147      49.90913780      50.19044031
C       50.92443146      49.98626576      49.98046129
C       50.14096738      49.17360779      50.78059037
C       48.67407664      49.03465288      50.71435851
C       48.13591416      49.94338060      49.81023019
C       48.92551571      50.91988920      49.13400166
C       50.28120528      50.82146474      49.05966536
H       52.92528548      49.79365214      49.22391927
H       52.85794697      50.66584244      50.71888831
H       52.36078661      49.02260364      50.72596300
H       50.66273435      48.85331726      51.55010159
H       48.14827368      48.23775855      51.24489527
H       47.07471452      50.09388401      49.73600077
H       48.45733362      51.76224145      48.51678310
H       50.94546775      51.45667494      48.44989841
