15
Lattice="100.0 0.0 0.0 0.0 100.0 0.0 0.0 0.0 100.0" Properties=species:S:1:pos:R:3 Energy=-170030.12021104564 pbc="F F F"
C       52.30125428      49.99367113      50.00450219
C       50.88984572      49.94611155      50.11848043
C       50.00654956      49.06754915      50.88048569
C       48.65063234      49.09761453      50.65795920
C       48.11804327      50.01358966      49.75184596
C       48.78376390      50.91063830      49.01294457
C       50.21031412      50.80073297      49.18993464
H       52.85072703      48.94536590      49.96981514
H       52.63749481      50.52118801      49.10669728
H       52.95082897      50.36661842      50.88656648
H       50.47351436      48.40504642      51.75746307
H       47.96189064      48.42509245      51.12875643
H       47.04917103      50.00608206      49.68817690
H       48.33825317      51.59495358      48.24253693
H       50.63984416      51.37117725      48.35672417
