15
Lattice="100.0 0.0 0.0 0.0 100.0 0.0 0.0 0.0 100.0" Properties=species:S:1:pos:R:3 Energy=-170038.75872636624 pbc="F F F"
C       52.52478283      49.95141356      50.25393674
C       51.04699094      49.98943916      50.07874421
C       50.31418109      49.10359447      50.84667410
C       48.92266744      49.16347640      50.80146302
C       48.21762414      49.99311903      49.85076878
C       49.01891070      50.97568904      49.09462963
C       50.40316474      50.88275541      49.18530720
H       52.71109044      49.30717638      51.09647481
H       52.91145126      49.49869586      49.31549490
H       52.86138003      50.94251974      50.51893721
H       50.70731936      48.51751026      51.63829359
H       48.41823091      48.36094429      51.33592899
H       47.08854874      49.86693160      50.02865360
H       48.55983137      51.63905571      48.36170641
H       51.11913136      51.57689873      48.78075908
