15
Lattice="100.0 0.0 0.0 0.0 100.0 0.0 0.0 0.0 100.0" Properties=species:S:1:pos:R:3 Energy=-170035.71622568602 pbc="F F F"
C       52.38504204      49.93819239      50.20803770
C       50.93931102      50.04519319      50.05763314
C       50.17181188      49.18366672      50.81371474
C       48.78372749      49.16297088      50.79922248
C       48.09229051      50.02840327      49.86653108
C       48.93256536      50.87205807      49.06999238
C       50.33777784      50.98189915      49.26771903
H       52.52569499      49.95011505      51.35276060
H       52.54124645      48.84258937      49.85003532
H       52.96603992      50.74331714      49.77683700
H       50.74216081      48.42378838      51.42958696
H       48.25127726      48.51387149      51.53091064
H       47.03396008      50.40424411      49.95503176
H       48.33738150      51.57621162      48.46908936
H       50.95825757      51.49595676      48.56947920
