15
Lattice="100.0 0.0 0.0 0.0 100.0 0.0 0.0 0.0 100.0" Properties=species:S:1:pos:R:3 Energy=-170040.9086720679 pbc="F F F"
C       52.43266327      50.04979549      50.15684223
C       50.93271558      49.86266710      50.06702142
C       50.18367610      48.98276160      50.86622980
C       48.75553377      49.13169299      50.68377925
C       48.07329276      50.06269266      49.83953915
C       48.88569052      50.88047561      49.05146105
C       50.29576483      50.73671182      49.20069322
H       52.59056587      51.00042778      50.63677112
H       53.01438753      49.24858980      50.55528844
H       52.66177690      50.30698136      49.12772261
H       50.66120053      48.35387600      51.63545700
H       48.11995210      48.38924535      51.09748764
H       46.98561247      50.25676272      49.86334595
H       48.46044842      51.64612400      48.36454300
H       50.95890376      51.20930543      48.49478238
