15
Lattice="100.0 0.0 0.0 0.0 100.0 0.0 0.0 0.0 100.0" Properties=species:S:1:pos:R:3 Energy=-170030.74391217664 pbc="F F F"
C       52.50809512      49.99168878      50.34945012
C       51.04191992      49.98314208      50.33597663
C       50.31282605      49.13256849      51.09755514
C       48.88532552      49.11219838      50.87602745
C       48.21649373      50.08857812      50.07498737
C       48.99272491      50.91308397      49.25231504
C       50.41895011      50.81567075      49.43971987
H       52.76735344      49.78229144      49.33707024
H       52.89387635      50.91088540      50.85411774
H       52.80798449      49.11903376      50.93953861
H       50.98318681      48.48236271      51.72601360
H       48.19441864      48.48341004      51.43891013
H       47.10612365      50.09020890      49.93361620
H       48.39383622      51.19791232      48.27398640
H       50.95269530      51.51763729      48.78529635
