15
Lattice="100.0 0.0 0.0 0.0 100.0 0.0 0.0 0.0 100.0" Properties=species:S:1:pos:R:3 Energy=-170030.02849900362 pbc="F F F"
C       52.40760603      49.80189496      50.32324006
C       50.89928256      49.87010162      50.06420867
C       50.14011797      49.13045130      50.96065238
C       48.79825569      49.00408467      50.87707967
C       48.13327749      49.83924045      49.94356885
C       48.93810912      50.84839238      49.17963498
C       50.32984732      50.90528454      49.27644188
H       52.48686523      49.33533948      51.27340757
H       52.97694816      49.15055448      49.76172276
H       52.79321824      50.80864140      50.15470746
H       50.74280400      48.40920401      51.49156600
H       48.23153411      48.43505185      51.55957576
H       47.02305184      49.89248239      49.95814766
H       48.54654794      51.52037405      48.44042424
H       51.03663345      51.59079599      48.80582967
