15
Lattice="100.0 0.0 0.0 0.0 100.0 0.0 0.0 0.0 100.0" Properties=species:S:1:pos:R:3 Energy=-170032.5349395644 pbc="F F F"
C       52.42955225      50.14157730      50.13267361
C       50.90958135      50.03981501      50.20558525
C       50.12618354      49.18421639      50.99960976
C       48.66919692      49.19094979      50.75907853
C       48.10094547      50.19039308      49.88106056
C       48.89589042      50.96303823      49.14856911
C       50.25710142      50.86364799      49.35989427
H       52.84827773      49.16641915      49.83110892
H       52.86170701      50.91710753      49.55859176
H       52.92319126      50.18598103      51.15080206
H       50.72820732      48.40007144      51.64203312
H       47.99410037      48.70047278      51.48775889
H       47.07680874      50.20630186      49.59730394
H       48.47559480      51.59771010      48.35796688
H       50.75394163      51.59992856      48.67200982
