15
Lattice="100.0 0.0 0.0 0.0 100.0 0.0 0.0 0.0 100.0" Properties=species:S:1:pos:R:3 Energy=-170028.24476014843 pbc="F F F"
C       52.43009896      50.18667983      50.39159875
C       50.82231047      50.09597555      50.11629534
C       50.04831962      49.20634083      50.95883297
C       48.64968732      49.29031686      50.93226228
C       48.13598082      50.20663036      50.04564480
C       48.85626339      51.01391600      49.22575018
C       50.25448380      51.06697015      49.32063216
H       52.81700027      49.48462206      51.18713400
H       52.92935397      50.00397829      49.35288250
H       52.61686385      51.35127851      50.59114136
H       50.35671555      48.36743215      51.46395601
H       47.99166840      48.72659383      51.58528057
H       47.07064603      50.42328278      50.08994445
H       48.26639674      51.63256785      48.51351026
H       50.75362735      51.54950489      48.41471943
