15
Lattice="100.0 0.0 0.0 0.0 100.0 0.0 0.0 0.0 100.0" Properties=species:S:1:pos:R:3 Energy=-170036.12839209882 pbc="F F F"
C       52.39484969      49.93900297      50.25514272
C       50.96706533      50.05856038      50.07084052
C       50.22996338      49.21442303      50.78190132
C       48.87807594      49.12648725      50.72194026
C       48.18969598      50.05111124      49.90729987
C       48.95546902      50.96438592      49.07896081
C       50.34014623      50.86746966      49.15113975
H       52.73777959      48.88496264      50.06784331
H       52.98467488      50.67052685      49.69121733
H       52.55161614      50.10129894      51.28762292
H       50.73550903      48.69232883      51.57186403
H       48.21537188      48.35404695      51.24258253
H       47.01532512      50.20631090      49.84352557
H       48.32919979      51.64595305      48.52388415
H       50.88709892      51.49247912      48.42813597
