15
Lattice="100.0 0.0 0.0 0.0 100.0 0.0 0.0 0.0 100.0" Properties=species:S:1:pos:R:3 Energy=-170030.17347577293 pbc="F F F"
C       52.44999183      49.97805284      50.05691604
C       50.92463698      49.97023652      50.11913012
C       50.10478232      48.99807234      50.80526923
C       48.70214953      49.13177371      50.71159613
C       48.13493614      50.00473191      49.82821156
C       48.93143491      50.79911695      49.00060867
C       50.30850823      50.87244074      49.20769887
H       52.84072424      51.02888937      50.03967768
H       52.93515323      49.70173728      51.01147891
H       52.90300106      49.66539224      48.96722272
H       50.49269103      48.59011856      51.75031390
H       47.92450904      48.66359596      51.36582052
H       47.06484677      50.10200409      49.69685207
H       48.31959002      51.28567025      48.24968610
H       50.87204583      51.40988144      48.39787217
