15
Lattice="100.0 0.0 0.0 0.0 100.0 0.0 0.0 0.0 100.0" Properties=species:S:1:pos:R:3 Energy=-170037.3144223661 pbc="F F F"
C       52.50196453      49.69365245      50.16498998
C       51.02164926      49.86673432      50.02879183
C       50.10093574      49.04174008      50.78756299
C       48.76509966      48.94795660      50.65092734
C       48.07700700      49.80869664      49.85715384
C       48.89854928      50.64676317      49.06989852
C       50.28567511      50.75793494      49.17812788
H       52.92471030      49.29981120      49.25339135
H       52.97356896      50.74937007      50.26287522
H       52.67259555      49.06581416      51.09744109
H       50.45947478      48.44449014      51.58244006
H       48.10973262      48.36043783      51.39168920
H       47.02643104      49.82283046      49.70576938
H       48.38353869      51.30662278      48.41755994
H       50.69826598      51.63956217      48.71789594
