15
Lattice="100.0 0.0 0.0 0.0 100.0 0.0 0.0 0.0 100.0" Properties=species:S:1:pos:R:3 Energy=-170037.79167176425 pbc="F F F"
C       52.35855538      49.99101088      50.40876014
C       50.94055359      49.98317375      50.11284272
C       50.22723307      49.10010881      50.87509072
C       48.77220710      49.09796810      50.91245452
C       48.12561538      50.09736483      50.03851118
C       48.92389650      50.90012958      49.14309737
C       50.32352391      50.88649530      49.28669134
H       52.89234929      49.03423508      50.23911488
H       52.90184242      50.71694126      49.76984064
H       52.49877443      50.41452906      51.36474074
H       50.73469541      48.42278635      51.51050182
H       48.19371050      48.57894323      51.65733174
H       47.09815758      50.38617857      49.98915254
H       48.42572045      51.46722942      48.34266826
H       50.92463871      51.57721365      48.77396373
