15
Lattice="100.0 0.0 0.0 0.0 100.0 0.0 0.0 0.0 100.0" Properties=species:S:1:pos:R:3 Energy=-170035.5739003852 pbc="F F F"
C       52.38634545      50.24702048      50.21199446
C       50.84597004      49.97471120      50.11392504
C       49.98363421      49.12832326      50.85087022
C       48.56362403      49.27675220      50.80759038
C       48.00597143      50.16705450      49.93385654
C       48.81829531      50.99578650      49.12813960
C       50.22027065      50.92686290      49.24417786
H       52.72853804      51.08120723      49.56974711
H       52.79503032      50.63685462      51.11370056
H       53.01409366      49.40010020      49.81764539
H       50.31026755      48.29674100      51.62499398
H       47.81599259      48.58858998      51.33180311
H       46.98590634      50.26747062      49.55707685
H       48.39456949      51.70325900      48.37500602
H       50.74431403      51.58570632      48.59723763
