15
Lattice="100.0 0.0 0.0 0.0 100.0 0.0 0.0 0.0 100.0" Properties=species:S:1:pos:R:3 Energy=-170033.42296257918 pbc="F F F"
C       52.28542864      50.00473152      50.41337482
C       50.84279052      49.94353657      50.13311260
C       50.02746007      49.17339389      50.92454045
C       48.65087806      49.11799294      50.90811804
C       48.03924328      50.06401454      50.08598391
C       48.80578047      50.89804080      49.18829453
C       50.21032453      50.95403836      49.31956517
H       53.03593236      49.83594220      49.55061580
H       52.40167467      50.98007520      51.01417337
H       52.44682841      49.18429170      51.08821203
H       50.57706353      48.46487800      51.58291604
H       48.19045353      48.28443860      51.28847491
H       46.96406764      49.98398910      49.89067953
H       48.36244494      51.58706848      48.41708396
H       50.93065612      51.71556140      48.70704559
