15
Lattice="100.0 0.0 0.0 0.0 100.0 0.0 0.0 0.0 100.0" Properties=species:S:1:pos:R:3 Energy=-170042.42431575453 pbc="F F F"
C       52.36362928      50.02857723      50.26606321
C       50.89624697      49.86157065      50.15404343
C       50.11863007      48.99767026      50.88386734
C       48.72488756      49.08236510      50.81815677
C       48.04303753      50.04604368      49.94219446
C       48.86093242      50.89257519      49.11474064
C       50.24264571      50.70651326      49.27877370
H       52.64367965      50.97401873      50.69481364
H       52.99067696      49.18526797      50.78226626
H       52.72297189      50.07432273      49.27392267
H       50.66136646      48.36933486      51.60276988
H       48.04268009      48.42990439      51.42591839
H       47.00932304      50.04496257      49.74952159
H       48.39574791      51.63066514      48.39723012
H       50.91213385      51.38764264      48.77738608
