15
Lattice="100.0 0.0 0.0 0.0 100.0 0.0 0.0 0.0 100.0" Properties=species:S:1:pos:R:3 Energy=-170029.7520914731 pbc="F F F"
C       52.29740802      50.19010599      50.15173264
C       50.86342428      50.11108570      50.29579200
C       50.09067026      49.21098262      50.98778038
C       48.66578249      49.32584206      50.83434381
C       48.09252823      50.18542207      49.94153421
C       48.95908024      50.95131261      49.21960176
C       50.26598098      51.00131580      49.40767973
H       52.64484215      49.51937198      49.38127012
H       52.69346331      51.16742537      49.98165169
H       52.98558250      49.92321458      51.08957718
H       50.45167148      48.33751714      51.49990193
H       48.02122150      48.64147152      51.27332206
H       47.01441750      50.18316039      49.91848949
H       48.57670598      51.66248286      48.50009807
H       50.94651127      51.59928010      48.90301356
