15
Lattice="100.0 0.0 0.0 0.0 100.0 0.0 0.0 0.0 100.0" Properties=species:S:1:pos:R:3 Energy=-170029.99725941458 pbc="F F F"
C       52.48228590      50.05677680      50.05483161
C       50.97787348      49.97081610      50.10173444
C       50.12084975      49.04892810      50.85058474
C       48.67569329      49.10549889      50.67104601
C       48.05109450      50.06208076      49.76470697
C       48.90958168      50.91062139      49.08096303
C       50.29324337      50.75033740      49.14761188
H       53.09461919      49.71463173      50.93825605
H       52.93288758      49.63236035      49.24962452
H       52.72185991      51.10412043      49.94152708
H       50.66248034      48.41062143      51.69624673
H       48.14760955      48.57243798      51.31659137
H       46.90538081      50.18263181      49.76340456
H       48.62467441      51.58937857      48.30375327
H       50.94048177      51.28716519      48.47314052
