15
Lattice="100.0 0.0 0.0 0.0 100.0 0.0 0.0 0.0 100.0" Properties=species:S:1:pos:R:3 Energy=-170025.6414638825 pbc="F F F"
C       52.50413382      50.11228676      50.32414645
C       50.95609483      50.05411475      50.32711696
C       50.00186785      49.08731958      50.99821070
C       48.60918807      49.31075240      50.94657886
C       48.02620436      50.11291931      50.06702275
C       48.78332013      50.89738188      49.21927494
C       50.23131051      50.99019865      49.46800913
H       53.10569823      50.81261322      49.81009172
H       52.77901333      50.31680837      51.31157372
H       52.86309965      49.16466461      50.06702433
H       50.41451958      48.33813682      51.68089399
H       48.05466873      48.64284800      51.56400757
H       46.89430177      50.25499427      50.05688166
H       48.37873477      51.48925597      48.31910601
H       50.78368268      51.66186318      48.73419073
