15
Lattice="100.0 0.0 0.0 0.0 100.0 0.0 0.0 0.0 100.0" Properties=species:S:1:pos:R:3 Energy=-170036.11598221044 pbc="F F F"
C       52.40842460      49.80723740      50.16292737
C       50.85066495      50.00362784      50.08124588
C       50.10245722      49.12749399      50.83765653
C       48.69054049      49.17075890      50.66276766
C       48.01678086      49.92653341      49.74206329
C       48.72618420      50.88214864      49.08550332
C       50.09702170      50.85180009      49.18175267
H       52.77680800      49.86999140      51.23230048
H       52.57485956      48.74461022      49.84761833
H       53.06722071      50.50287880      49.54505723
H       50.46024364      48.36086692      51.67398110
H       47.99246760      48.57844420      51.20595460
H       46.93277929      49.94861035      49.68224472
H       48.31635607      51.46335821      48.32601890
H       50.58255440      51.63913308      48.50603282
