15
Lattice="100.0 0.0 0.0 0.0 100.0 0.0 0.0 0.0 100.0" Properties=species:S:1:pos:R:3 Energy=-170029.69742526615 pbc="F F F"
C       52.38126467      49.90788670      50.22497045
C       50.90310477      50.07107943      50.24897111
C       50.10190135      49.16302429      50.99457238
C       48.74197518      49.10311707      50.81102621
C       48.12060934      50.05306007      49.97188740
C       48.82996556      50.94719610      49.05652012
C       50.24227526      51.03363462      49.26575221
H       52.84984111      49.22344707      49.49182549
H       52.98362331      50.83236494      50.18544642
H       52.61429764      49.46308385      51.17753855
H       50.63831033      48.59584915      51.68591926
H       48.23579706      48.43168380      51.50203486
H       47.01637669      49.99400538      49.98996861
H       48.08178194      51.56831620      48.31408074
H       51.01127436      51.52224473      48.51832579
