15
Lattice="100.0 0.0 0.0 0.0 100.0 0.0 0.0 0.0 100.0" Properties=species:S:1:pos:R:3 Energy=-170037.34993318623 pbc="F F F"
C       52.57563066      50.14420430      50.27393422
C       50.96451822      50.04805273      50.16249633
C       50.10174187      49.15671272      50.90684923
C       48.66365142      49.29548677      50.83715152
C       48.07664438      50.13131933      49.94605374
C       48.88531681      50.94193194      49.22019043
C       50.27955023      50.91600152      49.33916542
H       53.03426480      49.14966066      49.90933608
H       52.89715110      50.91108794      49.63685975
H       53.04625724      50.26759142      51.33714836
H       50.54761651      48.37300159      51.64217040
H       48.10948066      48.53452084      51.36032592
H       46.95374276      50.21159221      49.81097181
H       48.51627384      51.62699841      48.35782960
H       50.83123198      51.55775926      48.54167885
