15
Lattice="100.0 0.0 0.0 0.0 100.0 0.0 0.0 0.0 100.0" Properties=species:S:1:pos:R:3 Energy=-170024.82935576723 pbc="F F F"
C       52.43564146      49.89796564      49.89800098
C       50.98759866      49.81830896      49.80706947
C       50.09921886      49.02075096      50.60258471
C       48.69895159      49.10079748      50.50945608
C       48.09005099      49.88816746      49.57129398
C       48.93297464      50.68955490      48.90460001
C       50.28138329      50.78232380      49.07769663
H       52.94418583      49.02298494      49.43453364
H       52.58767735      50.98053937      49.46533490
H       52.71813425      49.70819651      50.98451597
H       50.59234079      48.37836269      51.49114532
H       47.95531212      48.63446692      51.25179768
H       47.05581417      50.08883757      49.53473896
H       48.34193365      51.60523327      48.50885468
H       50.79336842      51.62163731      48.55637579
