15
Lattice="100.0 0.0 0.0 0.0 100.0 0.0 0.0 0.0 100.0" Properties=species:S:1:pos:R:3 Energy=-170036.13037469683 pbc="F F F"
C       52.42964363      49.95807831      50.08497567
C       50.97688448      50.00266067      50.21487038
C       50.12386537      49.08454777      51.00014924
C       48.72360663      49.07060483      50.78511036
C       48.17461630      50.00784157      49.89860105
C       48.98536319      50.82805622      49.09230252
C       50.34321235      50.88781338      49.35766392
H       52.71464008      50.80738291      49.44125885
H       52.87162284      50.01901532      51.16022675
H       52.87459038      49.00821084      49.60545810
H       50.81540125      48.33371202      51.66437924
H       48.00798598      48.48892173      51.46003486
H       47.12540962      50.19400221      49.72937452
H       48.54681029      51.49796043      48.33562076
H       50.81155293      51.66628798      48.70381055
