15
Lattice="100.0 0.0 0.0 0.0 100.0 0.0 0.0 0.0 100.0" Properties=species:S:1:pos:R:3 Energy=-170026.91028323924 pbc="F F F"
C       52.42320627      49.79892754      50.36349388
C       50.89877179      50.03365876      50.24799213
C       50.17322694      49.12583302      50.91847199
C       48.85774887      49.13368698      50.78688601
C       48.03665911      49.92870326      49.99213250
C       48.84158596      50.87657377      49.22705506
C       50.27631071      50.85032645      49.22730280
H       53.05220365      50.59877269      49.94825614
H       52.71660986      49.84597557      51.47664002
H       52.89707359      48.82996050      49.94195004
H       50.66600927      48.35166465      51.49493644
H       48.41421069      48.43711136      51.39964342
H       46.94779635      49.85974073      49.89587146
H       48.35105226      51.40508042      48.50506356
H       50.83434774      51.64833535      48.63252847
