15
Lattice="100.0 0.0 0.0 0.0 100.0 0.0 0.0 0.0 100.0" Properties=species:S:1:pos:R:3 Energy=-170028.9773202249 pbc="F F F"
C       52.33305358      50.08494533      50.29351048
C       50.78662045      49.92753964      50.10079902
C       50.03875099      49.14451573      50.96411691
C       48.64487080      49.30742995      50.90023394
C       48.08839962      49.99963970      49.88659270
C       48.82038025      50.98893339      49.23364407
C       50.15943652      50.92990043      49.38211707
H       52.74117197      50.74262911      49.57325021
H       52.38074248      50.63977104      51.34548988
H       52.97326464      49.15447549      50.40450457
H       50.41657661      48.28822621      51.46982566
H       48.00951800      48.50495859      51.28534095
H       47.02673536      49.89278822      49.78937099
H       48.54318856      51.71177379      48.53017434
H       50.76062102      51.59644039      48.77136849
