9
Lattice="100.0 0.0 0.0 0.0 100.0 0.0 0.0 0.0 100.0" Properties=species:S:1:pos:R:3 Energy=-167305.12530029833 Energy_pyscf=-167305.08713521628 pbc="F F F"
C       50.62292056      50.98850050      50.99205389
C       50.62133086      50.52464143      49.51315231
C       49.34478052      49.59461558      49.11689094
O       49.43934159      48.55598932      48.43667037
O       51.59274759      51.41800050      51.53947517
H       49.84501838      50.59407995      51.61777824
H       50.50038560      51.32387408      48.80086541
H       51.62487331      50.03724387      49.31479267
H       48.38583760      50.06254426      49.53182473
