9
Lattice="100.0 0.0 0.0 0.0 100.0 0.0 0.0 0.0 100.0" Properties=species:S:1:pos:R:3 Energy=-167311.17583897896 Energy_pyscf=-167310.59681326195 pbc="F F F"
C       50.62204239      50.91675575      50.63821872
C       49.76801285      50.33271085      49.50138218
C       49.23934422      48.91260103      49.53333474
O       48.61818650      48.55517574      48.54788825
O       50.80760159      50.42005992      51.67485444
H       51.00218614      51.98403445      50.38172536
H       48.78242176      50.83919053      49.64534221
H       50.17244982      50.61085528      48.51849941
H       49.40626641      48.19038170      50.36986932
