9
Lattice="100.0 0.0 0.0 0.0 100.0 0.0 0.0 0.0 100.0" Properties=species:S:1:pos:R:3 Energy=-167309.23445789402 Energy_pyscf=-167309.06333186248 pbc="F F F"
C       51.16153598      50.34783744      50.86640148
C       50.18579310      50.43989536      49.71309397
C       49.27889688      49.30709872      49.31568037
O       49.61037204      48.53933091      48.45980603
O       51.36053474      51.36429316      51.49614732
H       51.71210691      49.37401523      50.96065941
H       49.69294901      51.47635594      49.71164701
H       51.03627126      50.38267429      48.98332057
H       48.33303121      49.18046034      49.86646997
