9
Lattice="100.0 0.0 0.0 0.0 100.0 0.0 0.0 0.0 100.0" Properties=species:S:1:pos:R:3 Energy=-167310.7828246222 Energy_pyscf=-167310.94441201419 pbc="F F F"
C       50.65041291      50.85576059      50.59670085
C       49.66726208      50.40839747      49.52170249
C       49.24950016      48.95472230      49.51536128
O       48.75253678      48.44150495      48.57413395
O       50.76253723      50.34727168      51.69364796
H       51.09458677      51.81017098      50.35287543
H       48.71366623      50.99004500      49.66314038
H       50.09385998      50.71893419      48.45610187
H       49.46193402      48.24532822      50.41477001
