9
Lattice="100.0 0.0 0.0 0.0 100.0 0.0 0.0 0.0 100.0" Properties=species:S:1:pos:R:3 Energy=-167297.75114810353 Energy_pyscf=-167297.58324814326 pbc="F F F"
C       50.42378620      50.20624968      51.21461071
C       49.88049467      50.66811541      49.78327249
C       49.65586149      49.42155737      49.02656968
O       49.10615973      48.52332651      49.65664293
O       51.02597923      50.74070475      52.06369694
H       50.02828600      49.26649242      51.36674243
H       48.88595794      50.89015962      50.22996458
H       50.50719820      51.35773877      49.29571069
H       50.27455808      49.32332352      48.10702885
