9
Lattice="100.0 0.0 0.0 0.0 100.0 0.0 0.0 0.0 100.0" Properties=species:S:1:pos:R:3 Energy=-167299.12111845837 Energy_pyscf=-167298.92687100728 pbc="F F F"
C       50.63891537      50.79692996      50.39901089
C       49.38905061      50.71052396      49.50702900
C       48.77355600      49.27411739      49.27190079
O       49.13855589      48.45169170      48.45536366
O       50.66275168      51.51528716      51.41905984
H       51.42655005      49.97404167      50.31233870
H       48.81700716      51.45932903      50.10979592
H       49.56386341      51.33908181      48.61962913
H       48.24020360      49.17351862      50.19008535
