9
Lattice="100.0 0.0 0.0 0.0 100.0 0.0 0.0 0.0 100.0" Properties=species:S:1:pos:R:3 Energy=-167304.79577183368 Energy_pyscf=-167304.63169641534 pbc="F F F"
C       50.61002058      50.88615528      50.62793825
C       49.63209380      50.46624665      49.51510584
C       49.08282022      49.13301074      49.56730278
O       48.89092348      48.25408214      48.74807605
O       50.63302607      50.27354808      51.70642928
H       51.20817004      51.76328532      50.47589297
H       48.79623382      51.18334683      49.53499177
H       50.32722981      50.75950123      48.67255865
H       48.69406020      49.07288480      50.67323344
