9
Lattice="100.0 0.0 0.0 0.0 100.0 0.0 0.0 0.0 100.0" Properties=species:S:1:pos:R:3 Energy=-167301.83515059392 Energy_pyscf=-167301.6588666725 pbc="F F F"
C       50.43714093      50.20447157      51.22073193
C       49.75397343      50.68923897      49.89885678
C       49.79738340      49.34293957      49.13056722
O       49.01755322      48.43070898      49.41375124
O       51.29701321      50.73932970      51.98307467
H       49.97277133      49.24684738      51.59841035
H       48.67881082      51.07951256      50.09355925
H       50.46611050      51.33315999      49.29835117
H       50.33721184      49.32536196      48.10768294
