9
Lattice="100.0 0.0 0.0 0.0 100.0 0.0 0.0 0.0 100.0" Properties=species:S:1:pos:R:3 Energy=-167307.13731928833 Energy_pyscf=-167307.03035301785 pbc="F F F"
C       50.62744210      50.80032402      50.61285951
C       49.67337115      50.35487827      49.56713281
C       49.26725389      48.92586895      49.47603421
O       48.62387493      48.54637251      48.51492546
O       50.63438575      50.56969189      51.77874309
H       51.06016440      51.77717682      50.22664747
H       48.82532319      50.98987607      49.78256390
H       50.08989802      50.53233351      48.55146032
H       49.60627369      48.22681180      50.27684487
