9
Lattice="100.0 0.0 0.0 0.0 100.0 0.0 0.0 0.0 100.0" Properties=species:S:1:pos:R:3 Energy=-167309.37196762188 Energy_pyscf=-167309.17670080677 pbc="F F F"
C       50.58021121      50.49108533      50.83508239
C       50.35219714      50.64555244      49.35681238
C       49.48894801      49.48438594      48.92058048
O       49.60809248      48.45250673      49.50751441
O       51.64120892      50.16456954      51.31458807
H       49.64688085      50.59641272      51.36566239
H       49.71639684      51.53186420      49.03714706
H       51.36057997      50.61787796      48.77690429
H       48.69658650      49.75634941      48.16836084
