9
Lattice="100.0 0.0 0.0 0.0 100.0 0.0 0.0 0.0 100.0" Properties=species:S:1:pos:R:3 Energy=-167309.3049171678 Energy_pyscf=-167292.33280726004 pbc="F F F"
C       50.77806513      50.89089198      50.79562406
C       49.93000855      50.63939648      49.69396055
C       49.78182795      49.20135544      49.11519606
O       49.03867722      48.22999696      49.48330980
O       50.60504452      50.15401231      51.74213070
H       51.38371365      51.85490839      50.72012704
H       48.87714109      50.94323434      50.16910615
H       49.92307502      51.33629078      48.91318290
H       50.41089910      49.12448939      48.10681208
