9
Lattice="100.0 0.0 0.0 0.0 100.0 0.0 0.0 0.0 100.0" Properties=species:S:1:pos:R:3 Energy=-167310.55048213663 Energy_pyscf=-167310.6533484198 pbc="F F F"
C       51.19605558      50.35903164      50.80706787
C       50.13589356      50.56200664      49.73232914
C       49.36732249      49.25376753      49.35956007
O       49.87022950      48.27461271      48.83060476
O       51.61942336      51.20797990      51.59287134
H       51.54329052      49.29411935      50.94892092
H       49.70349104      51.56194006      49.77447849
H       50.71138334      50.63126353      48.77255244
H       48.21669797      49.27185394      49.56081239
