9
Lattice="100.0 0.0 0.0 0.0 100.0 0.0 0.0 0.0 100.0" Properties=species:S:1:pos:R:3 Energy=-167310.34471759584 Energy_pyscf=-167307.81529676283 pbc="F F F"
C       51.03022634      50.36080140      50.75617007
C       50.45389676      50.63470125      49.33615917
C       49.43646550      49.57599557      48.78514597
O       49.68306709      48.35283697      48.80233205
O       51.60377803      51.07698059      51.49442227
H       50.75609667      49.36108303      51.25498189
H       49.92924675      51.61856828      49.37156303
H       51.20486927      50.60666576      48.51467458
H       48.38978689      49.91002783      48.47734130
