9
Lattice="100.0 0.0 0.0 0.0 100.0 0.0 0.0 0.0 100.0" Properties=species:S:1:pos:R:3 Energy=-167296.9149156476 Energy_pyscf=-167282.63133698225 pbc="F F F"
C       51.04424405      50.28591071      50.78130358
C       50.17373983      50.66754836      49.57253825
C       49.38299189      49.20533710      49.33823645
O       49.56476985      48.64138753      48.34144773
O       51.33265545      51.23018086      51.43995368
H       51.38442617      49.28942635      51.13342441
H       49.78583346      51.71806304      49.60238372
H       50.95299031      50.40626675      48.90843261
H       48.74780435      48.99061835      50.19513570
