9
Lattice="100.0 0.0 0.0 0.0 100.0 0.0 0.0 0.0 100.0" Properties=species:S:1:pos:R:3 Energy=-167303.7413955164 Energy_pyscf=-167301.46768212077 pbc="F F F"
C       50.75149516      50.92875721      50.87871916
C       49.45876575      50.89528409      49.99661137
C       49.48519010      49.53644179      49.17115343
O       48.87922621      48.57034719      49.58736540
O       50.76791615      50.45188974      52.04692121
H       51.56968445      51.34128375      50.38908038
H       48.47312158      50.76725068      50.52357110
H       49.35476510      51.57193221      49.13013117
H       49.75011391      49.54598325      48.09224767
