9
Lattice="100.0 0.0 0.0 0.0 100.0 0.0 0.0 0.0 100.0" Properties=species:S:1:pos:R:3 Energy=-167307.47001204855 Energy_pyscf=-167307.22963077313 pbc="F F F"
C       50.29702157      51.04581504      50.74286072
C       50.16472114      50.45488241      49.32195054
C       49.61229800      49.03457004      49.36327976
O       48.87605607      48.77027645      48.44146163
O       50.69350899      50.45647887      51.71938228
H       49.79290396      52.07361903      50.71599672
H       49.54296034      51.09191306      48.74325801
H       51.09197229      50.38465273      48.71518938
H       49.86657597      48.36510098      50.37703405
