9
Lattice="100.0 0.0 0.0 0.0 100.0 0.0 0.0 0.0 100.0" Properties=species:S:1:pos:R:3 Energy=-167304.12993768597 Energy_pyscf=-167302.79762566037 pbc="F F F"
C       50.93049214      50.33387781      50.72282349
C       50.39996526      50.58586250      49.34948712
C       49.47720385      49.48540502      48.76543799
O       50.02361041      48.44411227      48.31590660
O       51.86424398      50.84609078      51.20398264
H       50.16422819      49.84242118      51.33516200
H       49.95098797      51.60524593      49.36938520
H       51.32202659      50.60618532      48.71019483
H       48.37410135      49.76328871      49.01750717
