9
Lattice="100.0 0.0 0.0 0.0 100.0 0.0 0.0 0.0 100.0" Properties=species:S:1:pos:R:3 Energy=-167309.23642611576 Energy_pyscf=-167308.15681654366 pbc="F F F"
C       50.55045207      50.71953430      50.81287926
C       49.29097052      50.77099334      49.95194898
C       49.23643552      49.42005919      49.18386820
O       48.85422929      48.41721318      49.64953328
O       50.64673122      50.28473292      51.89785572
H       51.49669032      51.10074252      50.25814449
H       48.43179289      50.96006742      50.64664449
H       49.28946152      51.73319824      49.36782409
H       49.62619718      49.42038515      48.05565577
