9
Lattice="100.0 0.0 0.0 0.0 100.0 0.0 0.0 0.0 100.0" Properties=species:S:1:pos:R:3 Energy=-167293.8522400157 Energy_pyscf=-167293.68413520473 pbc="F F F"
C       50.25081809      51.01472484      50.66318736
C       50.31922785      50.44989095      49.39031001
C       49.59283146      49.11641182      49.41315091
O       48.71084567      48.93790592      48.63134517
O       50.80414399      50.60493284      51.65040102
H       49.51621564      51.79785647      50.74599891
H       49.68246962      51.05630395      48.62944009
H       51.11409321      50.21438945      48.82683759
H       49.93391941      48.49057480      50.17024569
