9
Lattice="100.0 0.0 0.0 0.0 100.0 0.0 0.0 0.0 100.0" Properties=species:S:1:pos:R:3 Energy=-167305.33497172061 Energy_pyscf=-167302.53292786935 pbc="F F F"
C       50.56019459      50.78694713      50.47891457
C       49.41900556      50.80844580      49.31078521
C       48.86276718      49.45551088      49.41851317
O       48.76825388      48.58207140      48.58303253
O       50.28922318      50.84263213      51.71492880
H       51.49207140      50.43099258      50.04786481
H       48.76908666      51.56013206      49.81914017
H       49.86815955      51.10847258      48.42324830
H       48.61168314      49.15194621      50.47163565
