9
Lattice="100.0 0.0 0.0 0.0 100.0 0.0 0.0 0.0 100.0" Properties=species:S:1:pos:R:3 Energy=-167295.41926014883 Energy_pyscf=-167286.55285299438 pbc="F F F"
C       50.77379390      50.96493845      51.07337943
C       50.59547517      50.47633167      49.56325277
C       49.42403483      49.54596969      49.29579073
O       49.48264909      48.67987290      48.31798390
O       51.76930441      51.34121420      51.56751676
H       49.69603695      50.93242404      51.38129418
H       50.46533860      51.34654266      49.02514302
H       51.56430636      50.00504411      49.18424660
H       48.23130898      49.77901083      49.44130913
