9
Lattice="100.0 0.0 0.0 0.0 100.0 0.0 0.0 0.0 100.0" Properties=species:S:1:pos:R:3 Energy=-167305.6342255138 Energy_pyscf=-167305.47074891994 pbc="F F F"
C       50.58455146      50.67931194      50.42313156
C       49.44435948      50.88037369      49.34314789
C       48.86115284      49.40383227      49.43186988
O       48.90741057      48.52547124      48.57362339
O       50.30365967      50.85232075      51.64621957
H       51.53343081      50.32962651      50.05351513
H       48.60399010      51.48999633      49.79523518
H       49.87406102      51.27365145      48.40597185
H       48.52362495      49.29478319      50.56750900
