9
Lattice="100.0 0.0 0.0 0.0 100.0 0.0 0.0 0.0 100.0" Properties=species:S:1:pos:R:3 Energy=-167290.909686136 Energy_pyscf=-167290.73321297002 pbc="F F F"
C       50.81565224      50.75963124      50.87779244
C       49.69835953      50.58184190      49.67177707
C       49.75396756      49.34742008      49.01375306
O       49.05810592      48.37407737      49.41152576
O       50.76844142      50.17608861      51.92752297
H       51.25021862      51.68409588      50.42739753
H       48.82124219      50.93800568      50.22714372
H       49.99775988      51.43204507      48.91098406
H       50.58088854      49.09408715      48.26626640
