9
Lattice="100.0 0.0 0.0 0.0 100.0 0.0 0.0 0.0 100.0" Properties=species:S:1:pos:R:3 Energy=-167307.45181933593 Energy_pyscf=-167307.29402605182 pbc="F F F"
C       50.64771080      50.83461970      50.72334982
C       50.72650071      49.90638926      49.45904377
C       49.39048581      49.32067698      49.12071776
O       49.40272307      48.36067005      48.38514695
O       51.54191336      50.86715477      51.52701942
H       49.74461220      51.49847572      50.69746534
H       50.81295175      50.74227855      48.66783687
H       51.56420003      49.31325657      49.29595322
H       48.51714649      49.91227263      49.50858763
