9
Lattice="100.0 0.0 0.0 0.0 100.0 0.0 0.0 0.0 100.0" Properties=species:S:1:pos:R:3 Energy=-167297.0817041279 Energy_pyscf=-167296.91900410308 pbc="F F F"
C       50.64832409      51.03338571      50.95918754
C       50.58211776      50.46451201      49.42283304
C       49.34008666      49.61510744      49.19640347
O       49.33457253      48.46422626      48.78582871
O       51.61471767      50.93636880      51.67765494
H       49.54975680      51.32092617      51.32520228
H       50.37175852      51.47341840      48.77305860
H       51.50425589      50.11882764      49.16365048
H       48.53249608      50.26314049      49.07999214
