9
Lattice="100.0 0.0 0.0 0.0 100.0 0.0 0.0 0.0 100.0" Properties=species:S:1:pos:R:3 Energy=-167304.55012752087 Energy_pyscf=-167304.31084103874 pbc="F F F"
C       51.03145326      50.30520527      50.80248698
C       50.39612236      50.53689410      49.38235838
C       49.48766178      49.57786628      48.70939587
O       49.66250311      48.37056570      48.61636164
O       51.71139884      51.18827947      51.25735889
H       50.72117757      49.45512143      51.49512130
H       49.78524283      51.40650241      49.47911263
H       51.30653611      50.63504581      48.62184515
H       48.40541701      50.06184574      48.42304777
