9
Lattice="100.0 0.0 0.0 0.0 100.0 0.0 0.0 0.0 100.0" Properties=species:S:1:pos:R:3 Energy=-167308.05331532317 Energy_pyscf=-167307.86096049254 pbc="F F F"
C       50.24738242      51.08536951      50.79199246
C       50.08653051      50.42253458      49.42612512
C       49.51883432      49.09175487      49.33954076
O       48.94160683      48.67391571      48.32138816
O       51.04321832      50.72858949      51.63981731
H       49.63103373      51.99349450      50.88068330
H       49.70150798      51.14062516      48.65811799
H       51.04081213      50.26125446      48.85895601
H       49.70509085      48.32001394      50.22833209
