9
Lattice="100.0 0.0 0.0 0.0 100.0 0.0 0.0 0.0 100.0" Properties=species:S:1:pos:R:3 Energy=-167302.1833518636 Energy_pyscf=-167292.88420578343 pbc="F F F"
C       50.55136401      50.69214017      50.50724220
C       49.63461729      50.73249191      49.43916999
C       48.74360311      49.40670321      49.41612426
O       48.63528566      48.70276740      48.45608987
O       50.31176126      51.01355841      51.73245696
H       51.53490398      50.60904559      50.12787313
H       48.91856538      51.46781534      49.77368959
H       49.76365494      51.05067148      48.32265678
H       48.58456955      49.05984240      50.47173131
