9
Lattice="100.0 0.0 0.0 0.0 100.0 0.0 0.0 0.0 100.0" Properties=species:S:1:pos:R:3 Energy=-167304.59644807022 Energy_pyscf=-167302.58405384127 pbc="F F F"
C       50.69504319      50.88210583      50.80335850
C       49.64240714      50.70677983      49.73120090
C       49.76045718      49.17836615      49.09222068
O       49.15795139      48.29050948      49.57264976
O       50.86641617      49.99125744      51.62262072
H       51.47101617      51.69669763      50.71788783
H       48.56977998      51.00339026      49.97309476
H       49.98251426      51.53032940      48.91875510
H       50.53614006      49.07899872      48.31931153
