9
Lattice="100.0 0.0 0.0 0.0 100.0 0.0 0.0 0.0 100.0" Properties=species:S:1:pos:R:3 Energy=-167310.59786965162 Energy_pyscf=-167306.25203399765 pbc="F F F"
C       50.58312434      50.81632960      50.88911712
C       49.31677929      50.73046652      49.96061759
C       49.26395030      49.45849107      49.16065453
O       48.88456612      48.35850511      49.53862861
O       50.58300494      50.41836915      51.98450868
H       51.46231459      50.99563416      50.20822631
H       48.47504327      50.91258529      50.68963463
H       49.36988378      51.55730466      49.26353116
H       49.52587756      49.57436347      48.13798800
