9
Lattice="100.0 0.0 0.0 0.0 100.0 0.0 0.0 0.0 100.0" Properties=species:S:1:pos:R:3 Energy=-167308.91146798336 Energy_pyscf=-167307.41053266454 pbc="F F F"
C       50.65278242      50.81181809      50.59084376
C       49.59972445      50.44552556      49.48882120
C       49.33007515      48.96675607      49.41718757
O       49.03642958      48.14461669      48.52252801
O       50.82141599      50.26461049      51.67193397
H       51.23000203      51.75904079      50.27092552
H       48.66875863      51.04955688      49.80277080
H       49.94098438      50.82117893      48.53273263
H       49.15070993      48.49853715      50.48670864
