9
Lattice="100.0 0.0 0.0 0.0 100.0 0.0 0.0 0.0 100.0" Properties=species:S:1:pos:R:3 Energy=-167306.58528147746 Energy_pyscf=-167302.94489951673 pbc="F F F"
C       51.22300970      50.43866756      50.85299402
C       50.27145486      50.45425944      49.71168830
C       49.23791472      49.18395085      49.31545246
O       49.57454462      48.51378547      48.37180514
O       51.47727075      51.37237578      51.66839821
H       51.75395074      49.43918963      51.12316363
H       49.66361448      51.34888390      49.68659514
H       50.91075240      50.44698348      48.82610841
H       48.24457136      49.20502516      49.78858612
