9
Lattice="100.0 0.0 0.0 0.0 100.0 0.0 0.0 0.0 100.0" Properties=species:S:1:pos:R:3 Energy=-167307.4660915394 Energy_pyscf=-167307.3001255467 pbc="F F F"
C       50.41741724      50.18961912      51.20069580
C       49.74981573      50.63742367      49.90794384
C       49.65612853      49.40304613      49.03090468
O       49.13877419      48.42518849      49.51829003
O       51.28847721      50.79008457      51.78937582
H       49.93941127      49.24181033      51.59214132
H       48.66207064      51.01307314      50.01303682
H       50.58776525      51.28781380      49.54197914
H       50.32301014      49.40301103      48.16274924
