9
Lattice="100.0 0.0 0.0 0.0 100.0 0.0 0.0 0.0 100.0" Properties=species:S:1:pos:R:3 Energy=-167302.74053671365 Energy_pyscf=-167289.30713524655 pbc="F F F"
C       50.73517604      50.48150675      50.96919053
C       50.39777565      50.39654803      49.49679386
C       49.35815007      49.23752861      49.39148005
O       49.44125368      48.51813893      48.38546985
O       51.45892598      51.42614252      51.22935866
H       50.44284933      49.68224563      51.64255873
H       50.04200817      51.45194292      49.18925766
H       51.46181190      50.19330379      49.22180959
H       48.28033782      49.23467694      49.81395563
