9
Lattice="100.0 0.0 0.0 0.0 100.0 0.0 0.0 0.0 100.0" Properties=species:S:1:pos:R:3 Energy=-167303.45778678948 Energy_pyscf=-167296.4849595076 pbc="F F F"
C       50.74745156      50.72695351      50.52292248
C       49.52941381      50.59517060      49.47083634
C       48.71042828      49.39519402      49.40485637
O       48.55629794      48.63740658      48.47285328
O       50.38270785      50.90308218      51.68314335
H       51.75354877      50.89026353      50.13917509
H       48.72527274      51.26219769      49.64011975
H       49.90196279      51.12661241      48.47856470
H       48.33756930      49.19788959      50.47142419
