9
Lattice="100.0 0.0 0.0 0.0 100.0 0.0 0.0 0.0 100.0" Properties=species:S:1:pos:R:3 Energy=-167306.64436811843 Energy_pyscf=-167306.2813534383 pbc="F F F"
C       50.98385445      50.30964242      50.68247876
C       50.49790408      50.59793853      49.34173131
C       49.41723980      49.60707225      48.92375957
O       49.71136604      48.42423913      48.65331437
O       51.56921720      51.13682198      51.35570991
H       50.61998460      49.38557035      51.20191595
H       49.94680490      51.58875080      49.33684557
H       51.36924045      50.63323887      48.65057137
H       48.35565581      49.84505334      48.67433683
