9
Lattice="100.0 0.0 0.0 0.0 100.0 0.0 0.0 0.0 100.0" Properties=species:S:1:pos:R:3 Energy=-167307.44430946946 Energy_pyscf=-167307.6115279341 pbc="F F F"
C       51.20626191      50.31250086      50.86691061
C       50.20108465      50.49184442      49.71118853
C       49.34422713      49.23477132      49.34278204
O       49.82034498      48.27861633      48.70547148
O       51.50389673      51.36324020      51.46020428
H       51.71016252      49.30460521      51.02820134
H       49.62775866      51.33069977      49.98705374
H       50.72351329      50.61349610      48.77284306
H       48.23307497      49.45717948      49.47643003
