9
Lattice="100.0 0.0 0.0 0.0 100.0 0.0 0.0 0.0 100.0" Properties=species:S:1:pos:R:3 Energy=-167307.07143989368 Energy_pyscf=-167306.96252113135 pbc="F F F"
C       50.77243315      50.44776926      51.03562858
C       50.48644999      50.31387365      49.53921784
C       49.45872814      49.24542473      49.32705578
O       49.45743965      48.46697684      48.43748000
O       51.51035226      51.30348622      51.49225543
H       50.13173740      49.76607660      51.71442641
H       49.93431003      51.27688920      49.11305946
H       51.34081416      50.31307992      48.79196035
H       48.52657319      49.45102766      49.90108697
