9
Lattice="100.0 0.0 0.0 0.0 100.0 0.0 0.0 0.0 100.0" Properties=species:S:1:pos:R:3 Energy=-167306.06796826507 Energy_pyscf=-167305.91396900621 pbc="F F F"
C       50.55712736      50.74888493      50.42827403
C       49.40274891      50.89553980      49.43290333
C       48.95124660      49.42491524      49.48560816
O       49.08314483      48.60002173      48.60022941
O       50.34466778      50.96277612      51.62522976
H       51.46765976      50.20183262      50.01619004
H       48.77787988      51.53723388      49.92287294
H       49.70245164      51.12392200      48.36416336
H       48.38111521      49.24242609      50.34607281
