9
Lattice="100.0 0.0 0.0 0.0 100.0 0.0 0.0 0.0 100.0" Properties=species:S:1:pos:R:3 Energy=-167300.84164834887 Energy_pyscf=-167296.63001214468 pbc="F F F"
C       50.76394644      50.77988247      50.76543618
C       49.83597251      50.60952232      49.67382695
C       49.72357244      49.21734670      49.06534631
O       49.00081291      48.26022859      49.42831960
O       50.86880813      50.15573788      51.78541598
H       51.26537334      51.88219169      50.78773041
H       48.90337225      50.98719899      50.00677959
H       49.85213777      51.50325896      48.97159012
H       50.50368733      48.98109134      48.25870170
