9
Lattice="100.0 0.0 0.0 0.0 100.0 0.0 0.0 0.0 100.0" Properties=species:S:1:pos:R:3 Energy=-167311.77420110232 Energy_pyscf=-167311.60527182234 pbc="F F F"
C       50.13398195      51.20121921      50.78174405
C       50.20417027      50.62503711      49.45092053
C       49.53246801      49.28353340      49.26552587
O       48.58450739      49.17017720      48.51402043
O       50.97272367      51.15775412      51.63582681
H       49.22925354      51.77108563      50.96738494
H       49.66610584      51.30654705      48.81092607
H       51.22323105      50.60050667      49.06928648
H       49.95309280      48.47933565      49.97873457
