9
Lattice="100.0 0.0 0.0 0.0 100.0 0.0 0.0 0.0 100.0" Properties=species:S:1:pos:R:3 Energy=-167305.76596878786 Energy_pyscf=-167305.6018685537 pbc="F F F"
C       50.50600655      50.94671099      50.71469895
C       49.72291335      50.52876541      49.64405932
C       49.02257530      49.14170721      49.64289515
O       48.74546255      48.55810996      48.62423235
O       50.77939590      50.39157403      51.75212802
H       51.12025795      51.86324520      50.42947929
H       48.93041587      51.17668135      49.36224008
H       50.34650969      50.49104762      48.64382156
H       48.68198759      48.69263186      50.67583051
