9
Lattice="100.0 0.0 0.0 0.0 100.0 0.0 0.0 0.0 100.0" Properties=species:S:1:pos:R:3 Energy=-167294.36390427485 Energy_pyscf=-167294.19276636452 pbc="F F F"
C       50.74959827      50.88534883      50.88597019
C       49.43392242      50.76831932      49.93116521
C       49.35112078      49.47738871      49.05517180
O       49.11906321      48.39889729      49.63332978
O       50.66598939      50.35723389      52.02859717
H       51.40501451      51.74148257      50.55240332
H       48.60943285      51.04927963      50.53401609
H       49.75207289      51.52080342      49.22175753
H       49.37973286      49.43975156      47.94452172
