9
Lattice="100.0 0.0 0.0 0.0 100.0 0.0 0.0 0.0 100.0" Properties=species:S:1:pos:R:3 Energy=-167298.83417536443 Energy_pyscf=-167300.68200001147 pbc="F F F"
C       51.25247185      50.30617229      50.92280548
C       50.21633516      50.51703441      49.69099429
C       49.21974957      49.27264358      49.33156918
O       49.72448647      48.32975414      48.76759639
O       51.31483792      51.22239644      51.69406428
H       51.93413766      49.35247414      50.97911565
H       49.75102338      51.53424158      49.56561891
H       50.78823760      50.64764988      48.73092611
H       48.16170298      49.25720888      49.66759587
