9
Lattice="100.0 0.0 0.0 0.0 100.0 0.0 0.0 0.0 100.0" Properties=species:S:1:pos:R:3 Energy=-167302.83581255953 Energy_pyscf=-167288.07388650687 pbc="F F F"
C       50.34034502      51.15576644      50.79407948
C       50.00339738      50.30974542      49.45592580
C       49.48017014      48.92219403      49.29488661
O       49.07118370      48.78823193      48.23314209
O       51.06429330      50.93426238      51.81980512
H       49.79922717      52.17796247      50.82993834
H       49.49059661      51.09094111      48.81607529
H       51.01763756      50.19422821      48.82223559
H       49.66151312      48.13817800      50.07948462
