9
Lattice="100.0 0.0 0.0 0.0 100.0 0.0 0.0 0.0 100.0" Properties=species:S:1:pos:R:3 Energy=-167305.66621325348 Energy_pyscf=-167305.5109785696 pbc="F F F"
C       51.12454586      50.48257728      50.86608691
C       50.31350186      50.50407459      49.65037019
C       49.33789315      49.28930740      49.34771588
O       49.41637467      48.72752740      48.33070695
O       51.36218269      51.37465808      51.64659422
H       51.54329098      49.33514680      51.04205795
H       49.69792434      51.41782721      49.56913219
H       51.01439233      50.31212787      48.85739706
H       48.55203529      49.00174834      50.05014306
