9
Lattice="100.0 0.0 0.0 0.0 100.0 0.0 0.0 0.0 100.0" Properties=species:S:1:pos:R:3 Energy=-167301.37265451578 Energy_pyscf=-167301.20877075623 pbc="F F F"
C       50.37107122      50.22280231      51.22543604
C       49.90563146      50.64599343      49.79997453
C       49.71151702      49.43571336      49.04786315
O       48.98479732      48.57590179      49.46387535
O       51.11833539      50.75526094      52.04037804
H       50.12724188      49.13862159      51.38572076
H       48.92076212      50.98847935      50.18122554
H       50.28075772      51.55250951      49.30967635
H       50.34851532      49.07976947      48.26697187
