9
Lattice="100.0 0.0 0.0 0.0 100.0 0.0 0.0 0.0 100.0" Properties=species:S:1:pos:R:3 Energy=-167310.27547482637 Energy_pyscf=-167310.06903051402 pbc="F F F"
C       50.93410736      50.33185782      50.78589326
C       50.38307776      50.57841525      49.29247003
C       49.43072631      49.53382629      48.79176335
O       49.72283042      48.35960397      48.70312598
O       51.50002124      51.22478160      51.33856792
H       50.89026745      49.29506648      51.18172783
H       49.90469629      51.61620206      49.37100704
H       51.32821296      50.46909684      48.73940443
H       48.39260274      50.08265599      48.58848466
