9
Lattice="100.0 0.0 0.0 0.0 100.0 0.0 0.0 0.0 100.0" Properties=species:S:1:pos:R:3 Energy=-167303.9800902992 Energy_pyscf=-167296.36784161127 pbc="F F F"
C       50.53667688      50.66330197      50.50612689
C       49.42307409      50.82260201      49.33670339
C       48.71153640      49.51045259      49.46821179
O       48.90586058      48.66283610      48.66693218
O       50.30274056      50.66134777      51.73589295
H       51.62245557      50.68117765      50.03349152
H       48.85146137      51.71528589      49.78678091
H       49.78296832      50.93015274      48.29209471
H       48.51214345      49.11161608      50.42458170
