9
Lattice="100.0 0.0 0.0 0.0 100.0 0.0 0.0 0.0 100.0" Properties=species:S:1:pos:R:3 Energy=-167303.56251461856 Energy_pyscf=-167303.38060734622 pbc="F F F"
C       50.26054530      50.92519452      50.63120811
C       49.97508333      50.26365259      49.37712515
C       49.07712571      49.03048227      49.47434681
O       48.95356963      48.23095115      48.55043616
O       50.84773277      50.24597508      51.49010163
H       49.95644925      51.94034281      50.95588899
H       49.69810069      50.82647604      48.47910675
H       50.98447551      49.85072111      49.10320937
H       49.04920412      48.76360274      50.58858156
