9
Lattice="100.0 0.0 0.0 0.0 100.0 0.0 0.0 0.0 100.0" Properties=species:S:1:pos:R:3 Energy=-167310.39375275053 Energy_pyscf=-167304.21774698625 pbc="F F F"
C       50.37505763      50.95197877      50.67020737
C       49.98429978      50.20412353      49.32824575
C       49.20151974      48.92591074      49.54284944
O       48.96286179      48.25550195      48.56401625
O       50.57926630      50.18405714      51.65842707
H       50.05999588      52.00311812      50.71421862
H       49.61473609      51.01666564      48.66874955
H       50.96970199      49.90919335      48.91196696
H       49.01401478      48.64225240      50.59428696
