9
Lattice="100.0 0.0 0.0 0.0 100.0 0.0 0.0 0.0 100.0" Properties=species:S:1:pos:R:3 Energy=-167315.2974237886 Energy_pyscf=-167310.86659162847 pbc="F F F"
C       50.61949889      50.80662119      50.92329390
C       49.36064789      50.65152253      49.98553823
C       49.23802144      49.44887093      49.06106582
O       48.76076044      48.39522723      49.52514219
O       50.64720670      50.71465458      52.11463898
H       51.49141147      50.96766891      50.24544171
H       48.46342700      50.71386491      50.64955536
H       49.41405183      51.58801973      49.38120530
H       49.44907579      49.58884778      47.94536345
