9
Lattice="100.0 0.0 0.0 0.0 100.0 0.0 0.0 0.0 100.0" Properties=species:S:1:pos:R:3 Energy=-167295.1662096988 Energy_pyscf=-167298.08522739753 pbc="F F F"
C       51.13036998      50.41918037      50.91938168
C       50.29290449      50.56902798      49.67985707
C       49.42079215      49.16098740      49.43231684
O       49.63588489      48.45625610      48.49901227
O       51.32704841      51.27653767      51.75207397
H       51.53051976      49.31150341      50.80713539
H       49.72560208      51.61548247      49.57666259
H       50.85895439      50.41164888      48.72661248
H       48.44192998      49.21852763      49.98166186
