9
Lattice="100.0 0.0 0.0 0.0 100.0 0.0 0.0 0.0 100.0" Properties=species:S:1:pos:R:3 Energy=-167297.92492955003 Energy_pyscf=-167298.53815202322 pbc="F F F"
C       50.70060167      50.86590109      50.97597740
C       49.53929616      50.81293138      49.98967861
C       49.32912024      49.50503136      49.13332608
O       49.26797365      48.31543102      49.55569828
O       50.72375577      50.58046471      52.09078690
H       51.48690212      51.37933543      50.51226009
H       48.50887315      50.97361206      50.42218321
H       49.60220977      51.59355509      49.12469882
H       49.29066731      49.58651969      47.97722327
