9
Lattice="100.0 0.0 0.0 0.0 100.0 0.0 0.0 0.0 100.0" Properties=species:S:1:pos:R:3 Energy=-167306.36148345648 Energy_pyscf=-167305.13597264118 pbc="F F F"
C       50.59257700      50.72545609      50.83208688
C       49.32272094      50.65534854      50.00626795
C       49.27751418      49.39988972      49.16515969
O       48.82776268      48.37778793      49.55088871
O       50.67670423      50.46217009      52.04721596
H       51.39105771      51.15472393      50.23339088
H       48.39923908      50.96976624      50.61569806
H       49.51699478      51.54957483      49.35487636
H       49.45552672      49.53771767      48.03653480
