9
Lattice="100.0 0.0 0.0 0.0 100.0 0.0 0.0 0.0 100.0" Properties=species:S:1:pos:R:3 Energy=-167291.9203496934 Energy_pyscf=-167291.74995421225 pbc="F F F"
C       50.46853751      50.11001462      51.14326495
C       49.72980073      50.72735393      49.90997517
C       49.78339319      49.40601218      49.16823940
O       48.99815850      48.51533918      49.42892538
O       51.25252559      50.76288367      51.81528371
H       49.94709305      49.09807582      51.34300004
H       48.69272822      51.20575817      50.22072847
H       50.29171611      51.30940107      49.20892777
H       50.55687389      49.24109196      48.51843624
