9
Lattice="100.0 0.0 0.0 0.0 100.0 0.0 0.0 0.0 100.0" Properties=species:S:1:pos:R:3 Energy=-167305.79028793323 Energy_pyscf=-167297.5498437718 pbc="F F F"
C       50.77272877      50.94569589      50.87475838
C       49.91297903      50.62013791      49.67972754
C       49.74906715      49.17728845      49.04300218
O       49.05346453      48.17051698      49.37972708
O       50.67563001      50.30979165      51.83780508
H       51.41035383      51.78275575      50.78668831
H       48.89046931      50.90723422      50.18789790
H       49.93052899      51.34107441      48.87610956
H       50.34519887      49.09767609      48.10516439
