9
Lattice="100.0 0.0 0.0 0.0 100.0 0.0 0.0 0.0 100.0" Properties=species:S:1:pos:R:3 Energy=-167312.549741098 Energy_pyscf=-167307.9537931731 pbc="F F F"
C       50.69414096      50.85864429      50.87237599
C       49.47744130      50.81786481      49.84878454
C       49.33662731      49.51451412      49.07220366
O       49.10559664      48.48570192      49.65306813
O       50.71306041      50.36964164      51.99544790
H       51.51455627      51.53630396      50.55975047
H       48.61544319      50.98692246      50.58801713
H       49.44729615      51.69260698      49.19564649
H       49.56772797      49.39541689      48.02256508
