9
Lattice="100.0 0.0 0.0 0.0 100.0 0.0 0.0 0.0 100.0" Properties=species:S:1:pos:R:3 Energy=-167306.53270948926 Energy_pyscf=-167300.0628325989 pbc="F F F"
C       50.68905952      50.85977034      50.65982071
C       50.68180414      50.06691923      49.29762148
C       49.42423296      49.35276438      49.19500527
O       49.55061367      48.35198901      48.46490319
O       51.36767576      50.61226809      51.58724135
H       49.90468368      51.70895898      50.65592902
H       50.87636404      50.87081607      48.61580236
H       51.48019944      49.24428706      49.31440449
H       48.34323837      49.67725229      49.58190328
