9
Lattice="100.0 0.0 0.0 0.0 100.0 0.0 0.0 0.0 100.0" Properties=species:S:1:pos:R:3 Energy=-167309.09705787804 Energy_pyscf=-167309.08107278676 pbc="F F F"
C       50.53316364      50.92483402      50.65409019
C       49.68371150      50.57909350      49.49263783
C       49.16372376      49.15567952      49.60633176
O       48.93145706      48.29327029      48.78512354
O       50.21144122      50.47863455      51.73254346
H       51.52615792      51.44947288      50.50610930
H       48.77013443      51.08605500      49.63196124
H       50.10347292      50.84389603      48.40863841
H       48.93264400      48.98173432      50.66821073
