9
Lattice="100.0 0.0 0.0 0.0 100.0 0.0 0.0 0.0 100.0" Properties=species:S:1:pos:R:3 Energy=-167309.6699954617 Energy_pyscf=-167309.50915883572 pbc="F F F"
C       50.58455260      50.84337111      50.67238778
C       49.64612371      50.59170067      49.49879006
C       49.09734920      49.23171428      49.72699671
O       49.11987895      48.37721748      48.85958781
O       50.78338943      50.03348520      51.57908734
H       51.16763567      51.75787781      50.61279827
H       48.73549103      51.19656277      49.28172902
H       50.15009650      50.62034655      48.55794297
H       48.60298453      49.10420549      50.68005700
