9
Lattice="100.0 0.0 0.0 0.0 100.0 0.0 0.0 0.0 100.0" Properties=species:S:1:pos:R:3 Energy=-167309.79009628834 Energy_pyscf=-167302.42263990905 pbc="F F F"
C       50.73532476      50.89944697      50.77522628
C       49.70841739      50.59532325      49.65543015
C       49.72815876      49.25706366      49.09300349
O       49.12627959      48.29673226      49.47358341
O       50.75021655      50.03669856      51.64461836
H       51.44168762      51.82385862      50.78600049
H       48.79235937      50.99162022      50.19535437
H       49.96401168      51.40896190      48.82038210
H       50.50872061      49.04937299      48.34214050
