9
Lattice="100.0 0.0 0.0 0.0 100.0 0.0 0.0 0.0 100.0" Properties=species:S:1:pos:R:3 Energy=-167305.91998169673 Energy_pyscf=-167306.5456716833 pbc="F F F"
C       50.59896810      50.79118359      50.82535627
C       49.31210240      50.83617845      49.99726433
C       49.21096137      49.53070052      49.13109912
O       48.95282182      48.45578419      49.63590097
O       50.52564524      50.43195299      51.92688598
H       51.51030965      50.89704825      50.24676503
H       48.47686596      50.74815689      50.70450424
H       49.32851709      51.67155399      49.28453606
H       49.52588417      49.46704946      48.07982894
