9
Lattice="100.0 0.0 0.0 0.0 100.0 0.0 0.0 0.0 100.0" Properties=species:S:1:pos:R:3 Energy=-167304.25770537756 Energy_pyscf=-167306.1548911498 pbc="F F F"
C       50.35147520      50.21276855      51.24827543
C       49.72996303      50.69263693      49.96110373
C       49.78772510      49.39221080      49.18299310
O       49.01679857      48.50115547      49.34218752
O       51.46602908      50.61649888      51.63689775
H       49.90575175      49.19239028      51.52993201
H       48.68206554      51.08793505      50.00984387
H       50.26626211      51.50652098      49.44003106
H       50.54356223      49.19676912      48.38822280
