9
Lattice="100.0 0.0 0.0 0.0 100.0 0.0 0.0 0.0 100.0" Properties=species:S:1:pos:R:3 Energy=-167312.77892728554 Energy_pyscf=-167312.81890207747 pbc="F F F"
C       50.63096316      50.87526617      50.61382432
C       49.63704616      50.37479263      49.49705686
C       49.21384103      48.94657967      49.48378147
O       48.66153820      48.35551787      48.58073130
O       50.84037215      50.20508752      51.61725127
H       51.08358624      51.94071339      50.46784477
H       48.70209821      51.09932821      49.56826194
H       50.11345681      50.57830570      48.53436320
H       49.53178523      48.39037936      50.40740292
