9
Lattice="100.0 0.0 0.0 0.0 100.0 0.0 0.0 0.0 100.0" Properties=species:S:1:pos:R:3 Energy=-167303.17758910425 Energy_pyscf=-167300.73097465435 pbc="F F F"
C       50.49230511      50.69595319      50.49289790
C       49.40537929      50.74577293      49.36132469
C       48.90631616      49.39227626      49.39293820
O       48.68918633      48.71963335      48.45449697
O       50.31848643      51.04004980      51.69373007
H       51.48119368      50.46633851      50.04660978
H       48.81625517      51.51113603      49.87469393
H       49.95165186      51.02669350      48.42266165
H       48.59839956      49.12830114      50.51599844
