9
Lattice="100.0 0.0 0.0 0.0 100.0 0.0 0.0 0.0 100.0" Properties=species:S:1:pos:R:3 Energy=-167304.2539652404 Energy_pyscf=-167304.08501527543 pbc="F F F"
C       50.54684304      50.85204281      50.86043186
C       50.68777912      50.56160451      49.40489809
C       49.40405648      49.69287264      49.21030961
O       49.44095860      48.55668173      48.82530045
O       51.50162123      51.18613054      51.59863964
H       49.63366121      50.46240124      51.30245162
H       50.53855633      51.47225250      48.77232794
H       51.72555423      50.14971375      49.21999732
H       48.51228356      50.16004307      49.68096930
