9
Lattice="100.0 0.0 0.0 0.0 100.0 0.0 0.0 0.0 100.0" Properties=species:S:1:pos:R:3 Energy=-167303.54586896027 Energy_pyscf=-167306.26715491 pbc="F F F"
C       50.35317056      50.16561569      51.29284798
C       49.82175132      50.64093976      49.92228823
C       49.60425668      49.37773204      49.11908967
O       49.05001137      48.39289821      49.56414583
O       51.18139997      50.80488593      51.88721120
H       50.12818259      49.12359488      51.36646289
H       48.81581722      51.11282537      49.90733271
H       50.49160070      51.46619132      49.44946071
H       50.31074003      49.29107053      48.19935309
