9
Lattice="100.0 0.0 0.0 0.0 100.0 0.0 0.0 0.0 100.0" Properties=species:S:1:pos:R:3 Energy=-167306.1986668664 Energy_pyscf=-167305.97079259547 pbc="F F F"
C       51.01627292      50.74855479      50.71421476
C       49.90345621      49.69026056      50.44863225
C       49.31999093      49.83292654      48.97440878
O       48.63060922      49.02451831      48.30849487
O       51.18411896      51.33902020      51.78727048
H       51.76486078      50.75535959      49.85396649
H       50.21169952      48.67665351      50.50424438
H       48.97827484      49.88947085      51.03631049
H       49.65345962      50.74442491      48.38266668
