9
Lattice="100.0 0.0 0.0 0.0 100.0 0.0 0.0 0.0 100.0" Properties=species:S:1:pos:R:3 Energy=-167301.83254032957 Energy_pyscf=-167296.29838026757 pbc="F F F"
C       50.57500552      50.81273918      50.89273601
C       49.31088997      50.69196520      50.00639280
C       49.26504667      49.46217911      49.22797982
O       48.89339975      48.33160484      49.63850573
O       50.60638896      50.34897045      52.01384768
H       51.47090022      51.17452928      50.17703277
H       48.37706526      50.84614406      50.44919024
H       49.64344222      51.60632648      49.36934011
H       49.31970250      49.57682823      48.06448853
