9
Lattice="100.0 0.0 0.0 0.0 100.0 0.0 0.0 0.0 100.0" Properties=species:S:1:pos:R:3 Energy=-167304.30662286482 Energy_pyscf=-167307.625982529 pbc="F F F"
C       50.98484325      50.74842970      50.85734743
C       49.90877819      49.81391340      50.39893312
C       49.37874671      49.70021978      48.87192248
O       48.23927102      49.34395575      48.66426450
O       51.05136403      51.19135041      51.99513086
H       51.79353880      50.82735251      50.11830286
H       50.26141833      48.78335452      50.39483003
H       48.99715155      49.85452299      51.06163917
H       50.18661672      49.62836370      48.00568327
