9
Lattice="100.0 0.0 0.0 0.0 100.0 0.0 0.0 0.0 100.0" Properties=species:S:1:pos:R:3 Energy=-167304.30662286482 Energy_pyscf=-167308.50979601542 pbc="F F F"
C       50.60031819      51.03856197      50.57639184
C       50.80006796      49.73929041      49.64866836
C       49.58301548      49.43702055      48.81756603
O       48.53376819      50.05509116      48.62129929
O       51.24049561      51.36075332      51.54878197
H       49.78114799      51.67168987      50.18022554
H       51.48843491      50.02130441      48.77897294
H       51.21103966      48.88725272      50.15789945
H       49.49457575      48.32611968      48.47400583
