9
Lattice="100.0 0.0 0.0 0.0 100.0 0.0 0.0 0.0 100.0" Properties=species:S:1:pos:R:3 Energy=-167297.73664530474 Energy_pyscf=-167300.25306603988 pbc="F F F"
C       50.48849665      50.33689948      50.91711834
C       50.61832285      49.59185750      49.62568766
C       49.40766677      50.13138527      48.74403648
O       48.46058877      49.46776908      48.53153949
O       51.15142341      51.40904232      51.10322404
H       49.58889212      50.13424569      51.55610012
H       51.52452912      50.02836267      49.23154338
H       50.55603156      48.58689768      49.71109262
H       49.71043473      51.03196123      48.32576572
