9
Lattice="100.0 0.0 0.0 0.0 100.0 0.0 0.0 0.0 100.0" Properties=species:S:1:pos:R:3 Energy=-167305.98141471363 Energy_pyscf=-167307.5725312977 pbc="F F F"
C       50.97776842      50.74698410      50.86492474
C       49.90858871      49.85649755      50.32514800
C       49.40312056      49.70353371      48.90097246
O       48.24695290      49.35612095      48.68011823
O       51.02943068      51.17672415      51.96107444
H       51.77268342      50.81786580      50.11196216
H       50.25390452      48.79007043      50.40700992
H       49.00686828      49.85568319      51.04096436
H       50.16848258      49.62523374      48.03397964
