9
Lattice="100.0 0.0 0.0 0.0 100.0 0.0 0.0 0.0 100.0" Properties=species:S:1:pos:R:3 Energy=-167304.30662286482 Energy_pyscf=-167306.42628665254 pbc="F F F"
C       51.07775691      50.27339026      50.91028047
C       50.69264593      49.54664879      49.52154944
C       49.24709206      49.29440682      49.21687980
O       48.77923877      49.93170027      48.26468717
O       50.91184927      51.46096094      51.01558761
H       51.47536313      49.73946278      51.75273255
H       51.17744410      50.14915434      48.70521056
H       51.23268685      48.51490104      49.50447491
H       48.53123887      48.60925944      49.76024798
