9
Lattice="100.0 0.0 0.0 0.0 100.0 0.0 0.0 0.0 100.0" Properties=species:S:1:pos:R:3 Energy=-167303.20157118727 Energy_pyscf=-167307.4108150054 pbc="F F F"
C       50.97158038      50.88679232      50.41326930
C       50.65051591      49.47630546      49.96456073
C       49.25314202      49.35579483      49.19607437
O       48.65838343      50.04404218      48.40635548
O       50.93988797      51.26928523      51.59188885
H       51.18436333      51.59590701      49.57970658
H       51.34147641      49.06201597      49.20209359
H       50.34393239      48.73599785      50.83276906
H       48.71423240      48.40086668      49.56038793
