9
Lattice="100.0 0.0 0.0 0.0 100.0 0.0 0.0 0.0 100.0" Properties=species:S:1:pos:R:3 Energy=-167304.30662286482 Energy_pyscf=-167308.8828622939 pbc="F F F"
C       50.59515291      51.03777718      50.57785875
C       50.79844326      49.73535008      49.64440964
C       49.57210225      49.42750981      48.83597678
O       48.51847116      50.04552109      48.61828279
O       51.24010850      51.35327654      51.54141843
H       49.78428168      51.68370413      50.18304167
H       51.48737393      50.03585652      48.77854821
H       51.20980916      48.88122825      50.15116714
H       49.50216080      48.32672129      48.46962542
