9
Lattice="100.0 0.0 0.0 0.0 100.0 0.0 0.0 0.0 100.0" Properties=species:S:1:pos:R:3 Energy=-167304.30662286482 Energy_pyscf=-167307.9888117846 pbc="F F F"
C       50.97998317      50.74948290      50.85886547
C       49.90343878      49.81279754      50.39495738
C       49.38050411      49.70018644      48.87181970
O       48.23034155      49.34797693      48.67016789
O       51.05537237      51.18452685      51.98637520
H       51.78938634      50.83206877      50.12315225
H       50.27388021      48.78127512      50.38487759
H       48.99112809      49.85217230      51.04670570
H       50.18370596      49.62981818      48.00276341
