9
Lattice="100.0 0.0 0.0 0.0 100.0 0.0 0.0 0.0 100.0" Properties=species:S:1:pos:R:3 Energy=-167304.30662286482 Energy_pyscf=-167307.89867602437 pbc="F F F"
C       50.97966935      50.75522001      50.85730809
C       49.90591958      49.81024517      50.39516972
C       49.38357570      49.69765407      48.87508511
O       48.23332231      49.33734213      48.66190454
O       51.04828969      51.18691684      51.98882401
H       51.79476211      50.83423269      50.11825541
H       50.26500840      48.78652904      50.39719033
H       48.98809509      49.85492872      51.04881322
H       50.18537211      49.62194617      48.01439385
