9
Lattice="100.0 0.0 0.0 0.0 100.0 0.0 0.0 0.0 100.0" Properties=species:S:1:pos:R:3 Energy=-167304.30662286482 Energy_pyscf=-167308.09129450432 pbc="F F F"
C       50.58942414      51.03959253      50.57793987
C       50.79934168      49.73606366      49.65002679
C       49.58312268      49.43417961      48.82380327
O       48.52476715      50.04456169      48.62642223
O       51.24593829      51.35762632      51.53625737
H       49.77620926      51.68315813      50.18935332
H       51.48553418      50.03067891      48.77913974
H       51.20290279      48.87403720      50.15164629
H       49.49895566      48.32708405      48.47900303
