9
Lattice="100.0 0.0 0.0 0.0 100.0 0.0 0.0 0.0 100.0" Properties=species:S:1:pos:R:3 Energy=-167306.15548961808 Energy_pyscf=-167304.26624007124 pbc="F F F"
C       50.97856779      50.72541526      50.69562221
C       49.95287168      49.64992788      50.34301130
C       49.33264599      49.73253397      48.91187695
O       48.19389300      49.49701530      48.61021386
O       50.80228961      51.24577240      51.73806677
H       51.80910474      50.89019585      50.03903688
H       50.55965964      48.73420976      50.47278022
H       49.10832730      49.89703331      51.03802142
H       49.91914895      50.35653380      48.15347428
