9
Lattice="100.0 0.0 0.0 0.0 100.0 0.0 0.0 0.0 100.0" Properties=species:S:1:pos:R:3 Energy=-167305.98141471363 Energy_pyscf=-167307.65770332015 pbc="F F F"
C       50.98217448      50.73965057      50.88060284
C       49.90925573      49.86961678      50.32198251
C       49.41019239      49.69020911      48.89533666
O       48.26912300      49.36367076      48.70288284
O       50.99851280      51.16806765      52.00052259
H       51.75745054      50.78797586      50.04782669
H       50.27745161      48.77782035      50.40061812
H       49.02865046      49.87314751      51.01400617
H       50.16808151      49.65081396      48.07883626
