9
Lattice="100.0 0.0 0.0 0.0 100.0 0.0 0.0 0.0 100.0" Properties=species:S:1:pos:R:3 Energy=-167304.30662286482 Energy_pyscf=-167308.50846385368 pbc="F F F"
C       50.99059755      50.74863056      50.85141046
C       49.89968022      49.81516313      50.38861169
C       49.38054391      49.70160060      48.87149462
O       48.23890764      49.34295729      48.66308110
O       51.05493346      51.18645269      51.99232750
H       51.80098786      50.83546513      50.11143413
H       50.27144215      48.78941793      50.39141102
H       49.00030638      49.85387165      51.05666283
H       50.18653382      49.62562140      48.00524366
