9
Lattice="100.0 0.0 0.0 0.0 100.0 0.0 0.0 0.0 100.0" Properties=species:S:1:pos:R:3 Energy=-167304.30662286482 Energy_pyscf=-167308.40290640786 pbc="F F F"
C       50.98766677      50.74808207      50.84975354
C       49.89479777      49.81647688      50.39394083
C       49.37834042      49.70624870      48.86730987
O       48.24370092      49.34520592      48.65480809
O       51.05823549      51.19634349      51.99183375
H       51.79498454      50.84043625      50.12949690
H       50.27164332      48.77117658      50.39191758
H       48.99327789      49.86628607      51.06013456
H       50.17335283      49.62825133      48.00652753
