9
Lattice="100.0 0.0 0.0 0.0 100.0 0.0 0.0 0.0 100.0" Properties=species:S:1:pos:R:3 Energy=-167304.30662286482 Energy_pyscf=-167307.83567556625 pbc="F F F"
C       50.98786433      50.75235156      50.85042130
C       49.90676702      49.81635760      50.39472708
C       49.38129813      49.70361898      48.87494204
O       48.24098493      49.34225793      48.67003008
O       51.05291066      51.18707614      51.98780534
H       51.79212168      50.83417397      50.12039721
H       50.26939871      48.77975607      50.39261894
H       48.99239584      49.86933025      51.04530222
H       50.18384725      49.62713454      48.00334973
