9
Lattice="100.0 0.0 0.0 0.0 100.0 0.0 0.0 0.0 100.0" Properties=species:S:1:pos:R:3 Energy=-167304.30662286482 Energy_pyscf=-167307.522915512 pbc="F F F"
C       51.06800539      50.27304908      50.91174192
C       50.68564716      49.53719450      49.52661781
C       49.23682099      49.31234756      49.21441929
O       48.76602836      49.93504949      48.25293108
O       50.91372054      51.46232946      51.00777963
H       51.46353859      49.74242301      51.75403746
H       51.16865371      50.15552947      48.71677450
H       51.23565070      48.51547100      49.50510724
H       48.53422973      48.60907449      49.75793883
