9
Lattice="100.0 0.0 0.0 0.0 100.0 0.0 0.0 0.0 100.0" Properties=species:S:1:pos:R:3 Energy=-167304.30662286482 Energy_pyscf=-167308.26609121755 pbc="F F F"
C       50.98943959      50.75128986      50.85694473
C       49.90623033      49.81891820      50.38811417
C       49.37805518      49.69546414      48.87032579
O       48.23322066      49.33248978      48.66529953
O       51.04822295      51.18790083      51.98926533
H       51.79752198      50.82984581      50.11923013
H       50.27187085      48.78895331      50.39231347
H       48.99638308      49.86199663      51.05952487
H       50.18017580      49.62629929      48.01313787
