9
Lattice="100.0 0.0 0.0 0.0 100.0 0.0 0.0 0.0 100.0" Properties=species:S:1:pos:R:3 Energy=-167303.5389049969 Energy_pyscf=-167303.37007955782 pbc="F F F"
C       50.96331875      50.06869824      50.96073900
C       49.62980849      49.91350685      50.23011710
C       49.31888152      49.24339986      48.86822467
O       48.21438388      49.16789448      48.38226267
O       50.92026565      51.01799535      51.76287975
H       51.88005233      49.52962650      50.76473789
H       48.80616840      49.63859727      50.89910798
H       49.40661789      50.96839543      50.02864901
H       50.23165225      48.98297952      48.36108977
