9
Lattice="100.0 0.0 0.0 0.0 100.0 0.0 0.0 0.0 100.0" Properties=species:S:1:pos:R:3 Energy=-167304.30662286482 Energy_pyscf=-167308.3156453722 pbc="F F F"
C       50.98422275      50.75667905      50.85691748
C       49.90888474      49.81328860      50.38747612
C       49.38375291      49.70120776      48.86882896
O       48.24106941      49.33988349      48.66142926
O       51.05159605      51.19015674      51.99287368
H       51.79320766      50.82979953      50.11709668
H       50.27893577      48.78438994      50.39760179
H       48.99709315      49.85349205      51.04498982
H       50.19201815      49.63315644      48.01281079
