9
Lattice="100.0 0.0 0.0 0.0 100.0 0.0 0.0 0.0 100.0" Properties=species:S:1:pos:R:3 Energy=-167304.30662286482 Energy_pyscf=-167308.00056954802 pbc="F F F"
C       50.59165031      51.05209524      50.57273065
C       50.77575567      49.73469132      49.65146445
C       49.57527195      49.42965648      48.81283854
O       48.52382068      50.03525987      48.62124278
O       51.23855955      51.35589782      51.55232128
H       49.78272957      51.67504434      50.18585617
H       51.49847436      50.02462345      48.77576467
H       51.21265727      48.86297532      50.14836969
H       49.49529726      48.34441959      48.48289805
