9
Lattice="100.0 0.0 0.0 0.0 100.0 0.0 0.0 0.0 100.0" Properties=species:S:1:pos:R:3 Energy=-167304.30662286482 Energy_pyscf=-167308.1234134916 pbc="F F F"
C       50.98009847      50.74946474      50.84844733
C       49.91011960      49.81175803      50.39351390
C       49.37669973      49.69913992      48.86939374
O       48.23580429      49.34108337      48.66630734
O       51.05157603      51.19426375      51.98721372
H       51.79759276      50.83477883      50.11408247
H       50.26748880      48.78264137      50.39673375
H       48.99484565      49.85764312      51.04606904
H       50.18639172      49.62567781      48.01494358
