9
Lattice="100.0 0.0 0.0 0.0 100.0 0.0 0.0 0.0 100.0" Properties=species:S:1:pos:R:3 Energy=-167310.61157333592 Energy_pyscf=-167310.43454042065 pbc="F F F"
C       50.75259497      50.48055584      50.86057527
C       49.76139649      49.57472540      50.29751701
C       48.75644036      50.18698308      49.23723245
O       48.09453324      49.50606050      48.50062119
O       50.45605623      51.61606279      51.27234334
H       51.76288201      50.01554774      50.80019182
H       50.33150389      48.67580838      49.91660967
H       49.01812878      49.04189762      50.96035168
H       48.76577994      51.31805748      49.19625763
