9
Lattice="100.0 0.0 0.0 0.0 100.0 0.0 0.0 0.0 100.0" Properties=species:S:1:pos:R:3 Energy=-167304.30662286482 Energy_pyscf=-167308.71837852043 pbc="F F F"
C       50.59759687      51.03498935      50.57983044
C       50.80527285      49.73621463      49.64538547
C       49.58273410      49.41976331      48.83383522
O       48.53057687      50.05068229      48.62594656
O       51.23631620      51.36185847      51.54024043
H       49.78498974      51.68835890      50.18358023
H       51.49535146      50.04143083      48.77769195
H       51.20229453      48.87770801      50.14836668
H       49.49271313      48.32272622      48.48258205
