21
Lattice="100.0 0.0 0.0 0.0 100.0 0.0 0.0 0.0 100.0" Properties=species:S:1:pos:R:3 Energy=-406268.65625 Energy_pyscf=-406266.907788531 Energy_nn=-406269.40625 pbc="F F F"
C       52.33757387      49.34892387      49.09682656
C       51.40548936      52.13919634      49.31943155
C       53.00828846      50.39975627      48.57192111
C       52.63793121      51.72215755      48.61721666
C       46.95825178      51.32328424      50.07216760
C       51.19261194      49.68022584      49.86511215
C       50.59611502      51.03176922      49.79095410
O       50.15417748      49.08670294      51.82293026
O       48.41993143      50.08691248      48.58115121
O       50.83061252      47.45281957      50.44088542
C       50.65146043      48.75764999      50.76390455
C       48.26223347      50.82843596      49.46354345
O       49.29475041      51.33687302      50.20594443
H       50.90468613      46.93345227      51.29275139
H       52.77444454      48.34518909      49.16500717
H       50.88939964      53.13608944      49.05722798
H       53.91218666      50.04945745      48.06549009
H       53.10655059      52.48357245      48.12247077
H       46.90586076      52.39635169      50.39147577
H       46.24094304      51.16359560      49.19467117
H       46.51954049      50.70923128      50.82359481
