21
Lattice="100.0 0.0 0.0 0.0 100.0 0.0 0.0 0.0 100.0" Properties=species:S:1:pos:R:3 Energy=-406283.03125 Energy_pyscf=-406264.9049343184 Energy_nn=-406283.09375 pbc="F F F"
C       52.49508004      49.87150831      49.71773737
C       50.87243781      51.97802668      48.82414155
C       52.99045021      50.89280811      48.96085245
C       52.20267913      52.09377303      48.62313368
C       46.65263030      51.37491103      50.21063812
C       51.21143870      49.84970154      50.10248416
C       50.36042572      50.84501311      49.58544796
O       49.51312518      48.76649842      51.48727340
O       48.44247331      52.87600660      49.87089119
O       51.44609598      47.72275905      51.13607757
C       50.62436382      48.71469137      50.88826654
C       48.05343020      51.73465303      49.92865639
O       48.93472832      50.62623490      49.88200223
H       50.90802658      46.94237811      51.36387237
H       53.19892298      48.98364631      49.70272276
H       50.16588285      52.75546839      48.55579995
H       53.98852923      51.03468761      48.42097757
H       52.61709022      52.90118090      48.07144828
H       45.95386204      51.95169804      49.56222867
H       46.70770289      50.27256759      49.83744169
H       46.32790819      51.34209245      51.27949476
