21
Lattice="100.0 0.0 0.0 0.0 100.0 0.0 0.0 0.0 100.0" Properties=species:S:1:pos:R:3 Energy=-406250.625 Energy_pyscf=-406247.1188284354 Energy_nn=-406255.59375 pbc="F F F"
C       52.23035453      50.05378506      50.44226241
C       50.67746752      51.68765605      48.62722624
C       52.80505268      50.87946263      49.38864655
C       52.12388358      51.72436342      48.46837870
C       46.53625895      51.09464781      50.59986476
C       50.86339656      50.19383178      50.69113182
C       50.10030581      50.96256621      49.64741347
O       49.10716871      49.29546543      51.99894790
O       48.31553365      52.25029459      51.79859103
O       50.87405462      47.98124446      51.74900005
C       50.24151830      49.20393241      51.59648985
C       47.98221740      51.53178768      50.90312067
O       48.67361864      51.22941499      49.81290966
H       50.32247952      47.56498891      52.33429289
H       52.95428824      49.80159222      51.16609240
H       49.99534405      52.13968452      47.75277999
H       53.80263466      50.98056961      49.05607521
H       52.52542648      52.05976438      47.55824174
H       46.32994450      50.00806519      50.25462023
H       45.88218159      51.35838241      51.38719566
H       46.07045285      51.64627793      49.75154183
