21
Lattice="100.0 0.0 0.0 0.0 100.0 0.0 0.0 0.0 100.0" Properties=species:S:1:pos:R:3 Energy=-406269.84375 Energy_pyscf=-406249.79226803745 Energy_nn=-406271.34375 pbc="F F F"
C       52.57539845      49.40915146      49.47661030
C       51.06181736      51.83284458      49.03834253
C       52.90298556      50.42798390      48.59670652
C       52.27383271      51.70490686      48.50590206
C       46.93969307      51.40204719      50.44584683
C       51.25792079      49.47502305      50.04515129
C       50.53551701      50.58168063      49.72604816
O       49.49959150      48.20299564      50.90695234
O       48.52385141      52.02037892      48.71717828
O       51.63185474      47.77717477      51.69808572
C       50.74000180      48.35311765      50.91714317
C       48.33306481      51.48790914      49.71735828
O       49.43725588      50.92498122      50.43741469
H       51.26054574      46.95235376      52.06665891
H       53.25662212      48.62223725      49.78494898
H       50.49612302      52.72114270      48.96487419
H       53.71315165      50.38427582      47.80482919
H       52.68877906      52.45817379      48.01135757
H       46.31646790      52.25326233      49.98164251
H       46.49267830      50.45031086      50.26322407
H       47.12520413      51.34421256      51.54177352
