21
Lattice="100.0 0.0 0.0 0.0 100.0 0.0 0.0 0.0 100.0" Properties=species:S:1:pos:R:3 Energy=-406275.5625 Energy_pyscf=-406274.401932261 Energy_nn=-406274.78125 pbc="F F F"
C       52.25372894      49.32391209      49.44685096
C       51.29801053      51.89447536      49.34905000
C       53.10786090      50.25638632      48.94151328
C       52.47638571      51.50044449      48.72391267
C       46.93530505      51.35655307      50.86830796
C       51.06850311      49.69197311      50.22818700
C       50.54931620      50.97374698      50.13895737
O       49.12952271      48.51003935      51.29802611
O       48.10378769      50.51177351      48.86166599
O       51.33093529      47.85026171      51.69758004
C       50.34534376      48.64729428      51.08960019
C       48.05308793      50.94060817      50.00110775
O       49.33095700      51.29985544      50.75647307
H       50.75259902      47.28044976      52.24134237
H       52.65857042      48.31929706      49.61891113
H       50.86106349      52.98822238      49.37843120
H       54.03190332      50.02403648      48.47851462
H       52.83746923      52.37122771      48.15666420
H       46.01470147      51.69471980      50.26356244
H       46.55818434      50.54937694      51.58075911
H       47.28647968      52.10965119      51.64319465
