21
Lattice="100.0 0.0 0.0 0.0 100.0 0.0 0.0 0.0 100.0" Properties=species:S:1:pos:R:3 Energy=-406258.3125 Energy_pyscf=-406242.6786597664 Energy_nn=-406258.53125 pbc="F F F"
C       52.26948043      49.95023191      49.97121994
C       50.57795935      51.56816302      48.31413326
C       52.86073679      50.77274608      49.14717583
C       52.00302058      51.53393220      48.27972253
C       46.58553236      51.29657201      50.29730584
C       50.73321694      49.63633023      49.82156294
C       49.99765961      50.57396132      49.14703901
O       49.14449494      48.51425567      50.98286157
O       48.81672099      51.85072221      51.12101292
O       51.13604593      48.31986839      51.94359936
C       50.32753867      48.69227468      50.86931758
C       48.09932428      51.27499819      50.32189137
O       48.63640135      50.58156597      49.24587929
H       50.79664429      47.65055261      52.53205519
H       52.73564780      49.54151547      50.91677665
H       49.92829292      52.34159385      47.68587327
H       53.86121946      50.64702498      49.32388008
H       52.47830852      52.15109470      47.55956019
H       46.06162800      50.63899872      50.95765867
H       46.19502290      52.36778057      50.47038126
H       46.29980457      51.15382469      49.27742673
