21
Lattice="100.0 0.0 0.0 0.0 100.0 0.0 0.0 0.0 100.0" Properties=species:S:1:pos:R:3 Energy=-406240.53125 Energy_pyscf=-406220.84176260215 Energy_nn=-406245.34375 pbc="F F F"
C       52.65370810      50.19531000      50.29007660
C       50.82254255      51.62762766      48.62833688
C       53.06054976      50.93684095      49.18744258
C       52.23872868      51.76561534      48.42862616
C       46.92571284      51.39038973      49.65915156
C       51.37214839      50.11351076      50.46493172
C       50.44468853      50.69687998      49.47925659
O       50.65440811      48.87068146      52.50774918
O       48.72881222      52.57599276      50.54792380
O       50.56787971      47.88163514      50.56887655
C       50.60336875      49.03725233      51.29625370
C       48.29038113      51.63333292      50.04731584
O       49.15034172      50.57673212      49.70650939
H       50.05937064      47.29828908      51.13212681
H       53.44379064      49.86304315      50.94835178
H       50.03708958      51.84177479      47.98780440
H       54.09383100      51.02624661      48.83318164
H       52.64416312      52.48742602      47.79931542
H       46.41987804      51.81126550      50.49059862
H       46.30824294      51.99946633      48.83220355
H       46.74302492      50.45075506      49.33458320
