21
Lattice="100.0 0.0 0.0 0.0 100.0 0.0 0.0 0.0 100.0" Properties=species:S:1:pos:R:3 Energy=-406242.59375 Energy_pyscf=-406223.00188222463 Energy_nn=-406247.21875 pbc="F F F"
C       52.25558105      49.35552126      49.12466525
C       51.36188947      52.04297768      49.27220198
C       53.04763081      50.29341437      48.57548827
C       52.55054168      51.61267312      48.63167547
C       46.84438885      51.42110955      49.99331990
C       51.03799353      49.75041458      49.86292887
C       50.45723729      51.07744944      49.76718273
O       50.04332907      49.12166352      51.88171889
O       48.54021026      50.29905065      48.49145082
O       51.10090363      47.51533433      50.42784898
C       50.75787285      48.79713490      50.80313577
C       48.20799974      50.88072266      49.41809863
O       49.22568360      51.40317464      50.16812201
H       51.03422201      47.11854506      51.33778126
H       52.35997415      48.24498613      49.05247444
H       51.06475106      53.00407664      49.15582540
H       54.10168926      50.10696952      48.17685618
H       53.02317348      52.40081027      48.14044514
H       47.01054447      52.26454423      50.51202617
H       46.02769585      51.24585699      49.20251669
H       46.96810121      50.42606579      50.72693590
