21
Lattice="100.0 0.0 0.0 0.0 100.0 0.0 0.0 0.0 100.0" Properties=species:S:1:pos:R:3 Energy=-406289.71875 Energy_pyscf=-406270.16950064024 Energy_nn=-406284.46875 pbc="F F F"
C       52.26560336      49.78635707      49.69886657
C       50.51077037      51.49756092      48.44601788
C       52.70580271      50.80370010      48.84940544
C       51.88774328      51.70272995      48.16985900
C       46.58005821      51.32088472      50.00607332
C       50.93346516      49.62304767      49.93937265
C       50.06590391      50.53018524      49.43862673
O       49.28094370      48.11607045      50.89016580
O       48.49535834      52.77461361      49.70658052
O       51.38585142      47.75361565      51.45977310
C       50.41878402      48.55473808      50.91502954
C       48.02774356      51.63783455      49.77278360
O       48.70912028      50.45872230      49.49935800
H       51.03987273      47.43398180      52.27816854
H       52.95358808      49.01736329      50.12602313
H       49.77901464      52.18458221      47.85177448
H       53.77439814      50.87585324      48.85025059
H       52.20315789      52.40301768      47.44741359
H       46.44462949      50.38553817      50.60245398
H       46.00385357      52.12779369      50.52253648
H       46.17595976      50.97302095      48.97159149
