21
Lattice="100.0 0.0 0.0 0.0 100.0 0.0 0.0 0.0 100.0" Properties=species:S:1:pos:R:3 Energy=-406273.46875 Energy_pyscf=-406263.1062877012 Energy_nn=-406272.9375 pbc="F F F"
C       52.54658694      49.75549589      49.85091280
C       50.88023996      51.51469248      48.34620329
C       53.10105039      50.82235693      49.02099608
C       52.15011591      51.57296194      48.24165401
C       46.67286020      51.46429022      49.83988764
C       51.16720151      49.70971635      50.05071051
C       50.27064142      50.64762874      49.37131502
O       49.61628398      49.20510006      51.78335599
O       48.71764612      52.43376168      50.86386230
O       51.28678853      47.65922632      51.22220122
C       50.56875918      48.87446035      51.12864009
C       48.22625909      51.66644567      50.04848202
O       48.86755405      50.67541923      49.45525518
H       51.20390242      47.28117920      52.13784761
H       53.15734601      49.06570631      50.33910440
H       50.21646655      52.28410218      47.81568603
H       54.14195828      51.16253246      49.03602242
H       52.69131092      52.16785866      47.56416210
H       46.19234149      50.63689715      50.32265430
H       46.12389782      52.46554585      50.01785642
H       46.50447331      51.24361047      48.80446102
