21
Lattice="100.0 0.0 0.0 0.0 100.0 0.0 0.0 0.0 100.0" Properties=species:S:1:pos:R:3 Energy=-406263.5625 Energy_pyscf=-406248.2660734584 Energy_nn=-406262.53125 pbc="F F F"
C       52.29220471      49.52310243      50.04955286
C       50.96949930      51.90149125      49.31784209
C       52.78237223      50.39476123      49.04767818
C       52.26128531      51.61292031      48.86331621
C       46.95927378      51.01618771      50.92254230
C       50.94593746      49.82833878      50.65576550
C       50.37048088      51.10478423      50.20529119
O       49.29611386      48.83177893      52.10247886
O       48.23929125      51.08005448      48.75392852
O       50.93088433      47.49228533      51.23477535
C       50.39617917      48.78270989      51.48674729
C       48.09960507      51.22822407      49.97582562
O       49.21482777      51.45268214      50.94298419
H       50.27553752      46.83353731      51.59976229
H       52.67682537      48.54911721      50.34019919
H       50.37015744      52.67017396      48.91291164
H       53.81256367      50.22426639      48.85057235
H       52.43933584      52.41916135      48.09025691
H       46.68872101      49.97927391      51.35600771
H       47.22982161      51.49172864      51.90784626
H       45.98731319      51.49509025      50.53678866
