21
Lattice="100.0 0.0 0.0 0.0 100.0 0.0 0.0 0.0 100.0" Properties=species:S:1:pos:R:3 Energy=-406253.21875 Energy_pyscf=-406239.55663266056 Energy_nn=-406251.8125 pbc="F F F"
C       52.47952140      49.85569129      49.82940399
C       50.86301502      51.90282962      48.75587582
C       53.11297463      50.78268233      49.15389663
C       52.33354341      51.75779525      48.46948666
C       46.56557264      51.34580479      50.22104062
C       51.06374431      49.89639443      50.32450921
C       50.21495046      50.91416448      49.52920272
O       49.60026934      49.16852918      51.80560892
O       48.25124393      52.78550144      50.84465598
O       51.61507934      47.98221554      51.77063228
C       50.63583637      48.82789551      51.28145818
C       47.97288910      51.74907841      50.25047170
O       48.81646530      50.90694822      49.54724310
H       51.24785287      47.15439514      52.13945834
H       52.97002691      49.12075593      50.42187063
H       50.34483753      52.82811511      48.43520516
H       54.27207895      50.80947123      49.08714974
H       52.86848272      52.38247087      47.79040327
H       45.92984214      51.98138154      50.80920565
H       46.01844435      50.99917639      49.17388630
H       46.61714572      50.33906303      50.64788922
