21
Lattice="100.0 0.0 0.0 0.0 100.0 0.0 0.0 0.0 100.0" Properties=species:S:1:pos:R:3 Energy=-406280.90625 Energy_pyscf=-406262.35061368835 Energy_nn=-406279.78125 pbc="F F F"
C       52.48962044      49.35352245      49.76030381
C       51.33628024      51.93560940      49.34005300
C       53.06778012      50.28060997      48.90725423
C       52.55894946      51.55144370      48.75174259
C       46.92525212      51.38104833      50.84819148
C       51.18798101      49.72743947      50.37086493
C       50.64689402      50.95146974      50.14593684
O       49.54195463      48.96972804      52.12243043
O       48.02249077      49.83867878      49.17978143
O       51.03484380      47.52686680      51.26404447
C       50.41115689      48.75199251      51.21107964
C       48.16386981      50.68569078      49.95918434
O       49.38527511      51.21924132      50.55999014
H       50.73194903      46.85586331      51.90999792
H       53.01429211      48.32287345      50.05470327
H       50.99101594      52.94571666      49.25525003
H       53.92556143      50.00791007      48.26321427
H       53.11541274      52.29276415      48.16631401
H       47.08094656      51.66416485      51.82215754
H       46.60516723      52.24947648      50.24075710
H       46.02715547      50.72215417      50.65289372
