21
Lattice="100.0 0.0 0.0 0.0 100.0 0.0 0.0 0.0 100.0" Properties=species:S:1:pos:R:3 Energy=-406260.8125 Energy_pyscf=-406264.1638170605 Energy_nn=-406261.65625 pbc="F F F"
C       52.38570865      49.47041533      49.64379037
C       51.15832687      52.01399458      49.60755957
C       52.90422583      50.47485360      48.81496525
C       52.40922593      51.70560164      48.75103653
C       46.94484862      51.37507252      50.78195094
C       51.18842941      49.74052742      50.29306004
C       50.49894733      50.95145478      50.13747699
O       49.43124521      48.18557005      50.85139605
O       48.14862693      51.81329667      48.61442146
O       51.40289412      47.85115279      51.79656157
C       50.52594729      48.56485898      51.03415330
C       48.09462160      51.42465356      49.78647237
O       49.24853575      51.11143756      50.53430552
H       51.01672083      47.06456735      52.16572073
H       52.96642570      48.58465739      49.91715323
H       50.52281891      52.85913056      49.51568573
H       53.77728861      50.20144798      48.10145880
H       52.70049621      52.46958694      48.06120756
H       46.50222799      52.29952066      50.59485710
H       46.17157449      50.52409454      50.57469186
H       47.37962476      51.16194267      51.75801177
