21
Lattice="100.0 0.0 0.0 0.0 100.0 0.0 0.0 0.0 100.0" Properties=species:S:1:pos:R:3 Energy=-406253.59375 Energy_pyscf=-406225.9728712209 Energy_nn=-406252.8125 pbc="F F F"
C       52.45264761      50.03386744      49.96119223
C       50.78730665      51.57387948      48.48551100
C       53.10408817      50.85780173      49.06960355
C       52.21882425      51.71611652      48.32352699
C       46.85892895      51.55644401      49.93180793
C       51.13604957      49.71374801      49.99330326
C       50.27167564      50.51835689      49.37707880
O       49.36349614      48.73218643      51.10383116
O       48.89611081      52.27665254      50.68735181
O       51.39825867      47.81892376      51.60172453
C       50.50820740      48.63057315      50.85605641
C       48.20501144      51.50445872      49.87718150
O       48.93719242      50.34959290      49.49388067
H       50.84044916      47.67743724      52.40376211
H       53.06594333      49.31635040      50.31866100
H       50.24092593      51.91527620      47.59399621
H       54.13623778      51.06308163      48.89909849
H       52.60599269      52.43131545      47.59415580
H       46.30271488      50.75253597      50.43116054
H       46.48338549      52.48146715      50.38991923
H       46.49314536      51.42312925      48.88002104
