21
Lattice="100.0 0.0 0.0 0.0 100.0 0.0 0.0 0.0 100.0" Properties=species:S:1:pos:R:3 Energy=-406259.5625 Energy_pyscf=-406239.99234446103 Energy_nn=-406261.78125 pbc="F F F"
C       52.57699390      50.18531235      50.24722915
C       50.87146694      51.65497712      48.58658591
C       53.10158896      51.03747517      49.14732746
C       52.27918441      51.74784489      48.47598738
C       46.92915046      51.36970981      49.69211142
C       51.15160008      50.00833266      50.37193328
C       50.39506971      50.69446694      49.51701593
O       50.77229194      49.11811471      52.55878653
O       48.89622814      52.37592866      50.80868601
O       50.15697265      47.93905928      50.76914615
C       50.62986985      48.95933414      51.33655435
C       48.42290045      51.57630756      50.07349438
O       49.08053965      50.55635322      49.45144178
H       50.08948658      47.17740248      51.32169326
H       53.44401569      49.82901226      50.87869330
H       50.17483797      52.22326304      47.86745229
H       54.15195514      51.06150911      48.83631681
H       52.41593324      52.48978653      47.71668631
H       46.24998898      51.39294560      50.42662690
H       46.61295089      52.10109152      49.02495981
H       46.83213831      50.57103662      49.04086394
