21
Lattice="100.0 0.0 0.0 0.0 100.0 0.0 0.0 0.0 100.0" Properties=species:S:1:pos:R:3 Energy=-406247.875 Energy_pyscf=-406235.20001353516 Energy_nn=-406248.125 pbc="F F F"
C       52.44301047      49.51785725      49.68646517
C       51.17225324      51.88682181      49.60536092
C       52.98891604      50.55372372      48.81938960
C       52.23044141      51.61945829      48.82216257
C       46.95247041      51.62525357      50.67120423
C       51.17055541      49.57231671      50.25875708
C       50.47343791      50.80882814      50.26442004
O       49.37887622      48.07799763      51.07436866
O       48.13154062      51.57168422      48.66317785
O       51.66118008      47.82356272      51.77375851
C       50.58727249      48.47690237      50.88749850
C       48.07847742      51.29202429      49.80187551
O       49.17766809      50.85027786      50.61720285
H       51.09150124      47.12599119      52.03019243
H       53.15726545      48.65003863      49.88268500
H       50.67758633      52.78422442      49.63742168
H       53.63138354      50.30901617      48.08794585
H       52.33721178      52.53144045      48.18098336
H       46.49042112      52.57577510      50.40456209
H       46.28903055      50.81200533      50.46914459
H       47.20183833      51.38709496      51.69152859
