21
Lattice="100.0 0.0 0.0 0.0 100.0 0.0 0.0 0.0 100.0" Properties=species:S:1:pos:R:3 Energy=-406288.875 Energy_pyscf=-406282.0630711852 Energy_nn=-406284.875 pbc="F F F"
C       52.16607302      50.13680722      50.40970142
C       50.64810427      51.68094661      48.62256244
C       52.81947105      50.94429681      49.40811059
C       52.07959228      51.79039377      48.53548737
C       46.52271078      51.09322606      50.68895822
C       50.69495060      50.11301159      50.51553023
C       49.99883895      51.00873667      49.60066541
O       48.85500949      49.02021118      51.86256204
O       48.58701184      52.26447229      51.32209092
O       50.90579372      48.17832452      51.83233639
C       50.03393954      49.13265977      51.45032144
C       47.98891952      51.43314525      50.62848450
O       48.60620437      50.80630728      49.61488723
H       50.50622770      47.77078755      52.58658631
H       52.75792999      49.58798520      51.04457475
H       50.13073836      52.35611185      47.95180362
H       53.92862201      50.94792974      49.27791401
H       52.49017051      52.29074004      47.66375228
H       46.40954643      49.97777954      50.59086168
H       46.16417563      51.56967677      51.55061099
H       46.11382461      51.59789078      49.79090282
