21
Lattice="100.0 0.0 0.0 0.0 100.0 0.0 0.0 0.0 100.0" Properties=species:S:1:pos:R:3 Energy=-406264.0 Energy_pyscf=-406266.41795457323 Energy_nn=-406266.9375 pbc="F F F"
C       52.58555622      49.89028192      49.89937960
C       50.84239542      51.36193820      48.30767818
C       53.16812183      50.90793233      48.99884287
C       52.22594614      51.56352558      48.23418037
C       46.62906671      51.52572848      49.85207625
C       51.19960803      49.73838666      50.04725467
C       50.19134396      50.48631641      49.20036538
O       49.73808285      49.13526580      51.90695890
O       48.68552067      52.43486463      50.94801038
O       51.37028899      47.69744940      51.34409249
C       50.64958910      48.81826503      51.18871788
C       48.16262855      51.67778276      50.15977731
O       48.87067104      50.67918245      49.45636348
H       50.82961137      47.18310501      51.96176966
H       53.17928824      49.08467476      50.40535603
H       50.13860404      51.92949817      47.55972852
H       54.13363183      51.22296867      48.98819061
H       52.62270472      52.41404118      47.68591642
H       46.23973651      50.58444717      50.29146850
H       46.22891247      52.52833615      50.08629125
H       46.56888561      51.43737567      48.78157228
