21
Lattice="100.0 0.0 0.0 0.0 100.0 0.0 0.0 0.0 100.0" Properties=species:S:1:pos:R:3 Energy=-406280.0 Energy_pyscf=-406282.53563644853 Energy_nn=-406281.46875 pbc="F F F"
C       52.43424382      49.97265153      50.00586484
C       50.97341173      51.88291353      48.67874284
C       53.12674540      50.83629488      49.16418836
C       52.30596888      51.77792922      48.46920848
C       46.74056558      51.09215198      50.36508232
C       51.02173882      49.97870873      50.16644747
C       50.30324792      50.99659519      49.51193489
O       49.27003246      49.18086836      51.68604089
O       48.60694502      52.39362498      51.13871056
O       51.28034224      48.02693372      51.63080834
C       50.37518176      49.10211115      51.27986317
C       48.13079276      51.65254662      50.29047199
O       48.89109765      51.07053083      49.33510611
H       50.80312073      47.34413401      52.16780069
H       53.07108953      49.38248715      50.59593976
H       50.30097623      52.61669146      48.20111779
H       54.19609709      50.73425907      48.97027633
H       52.77024589      52.47706033      47.79609602
H       46.11623280      51.87755336      50.79778925
H       46.28827468      50.98124120      49.32143620
H       46.77612084      50.10920466      50.77776971
