21
Lattice="100.0 0.0 0.0 0.0 100.0 0.0 0.0 0.0 100.0" Properties=species:S:1:pos:R:3 Energy=-406249.59375 Energy_pyscf=-406246.9321335486 Energy_nn=-406251.1875 pbc="F F F"
C       52.15104982      49.39853831      49.00091240
C       51.44488141      52.00562780      49.30131070
C       53.00179760      50.39032065      48.59192070
C       52.74574863      51.64301706      48.70207505
C       46.81386125      51.29646974      50.00533596
C       50.97506094      49.71348236      49.77665269
C       50.48692344      51.07567470      49.74448371
O       50.34798922      48.96234759      52.00792369
O       48.42493726      50.23832694      48.52236687
O       50.98622270      47.45842282      50.56546978
C       50.65475753      48.75589278      50.88495397
C       48.18652478      50.92572598      49.43496825
O       49.36047392      51.51678352      50.13705942
H       51.07874590      47.14837433      51.50373640
H       52.57580052      48.33996879      48.79294358
H       51.17944437      53.06200861      49.06534781
H       53.98181287      50.05510699      48.15511929
H       53.24807950      52.41200372      48.19701011
H       46.76990995      52.10369350      50.61118867
H       46.13955326      51.35326708      49.08581144
H       46.51271436      50.52662036      50.70042335
