21
Lattice="100.0 0.0 0.0 0.0 100.0 0.0 0.0 0.0 100.0" Properties=species:S:1:pos:R:3 Energy=-406270.5 Energy_pyscf=-406265.37007622514 Energy_nn=-406268.09375 pbc="F F F"
C       52.27227735      49.25658667      49.53166049
C       51.10584297      51.87824971      49.29828676
C       52.85277098      50.38073691      48.88099012
C       52.38970435      51.64178254      48.65104206
C       46.90524943      51.50391416      50.87527887
C       51.18711005      49.68815123      50.28527957
C       50.44017232      50.87029516      49.98135350
O       49.35546382      48.71091384      51.34898557
O       48.09953321      50.30413713      48.95651175
O       51.27909017      47.60997288      51.59938130
C       50.51160470      48.59100251      51.09245682
C       48.04553372      50.92427573      50.02089995
O       49.23509191      51.30023090      50.65106456
H       50.68044808      47.04401329      52.13584151
H       52.80844881      48.33622057      49.77742191
H       50.64573773      52.85289437      49.53719647
H       53.80723741      50.13018376      48.54594410
H       53.12668114      52.36760468      48.29445638
H       45.99136877      51.54280105      50.28824396
H       46.63447580      50.78190285      51.66736778
H       47.32818607      52.43923721      51.39324354
