21
Lattice="100.0 0.0 0.0 0.0 100.0 0.0 0.0 0.0 100.0" Properties=species:S:1:pos:R:3 Energy=-406272.375 Energy_pyscf=-406252.4007773485 Energy_nn=-406274.625 pbc="F F F"
C       52.23001331      49.66264157      49.92560150
C       50.87161691      51.86845794      49.25742178
C       52.93954728      50.62620915      49.23231488
C       52.18881270      51.78438734      48.84779763
C       46.96130542      51.10456657      51.30974925
C       50.89477085      49.83131959      50.42268276
C       50.42596698      51.10988766      50.33045819
O       48.99535417      48.98410967      51.46663230
O       47.64355339      51.73420854      49.00872199
O       50.93839167      47.73442352      51.64763882
C       50.12010109      48.77376069      51.25214769
C       47.95233759      51.39403545      50.21581793
O       49.22769942      51.49249647      50.86335502
H       50.40546813      46.94263949      51.93868840
H       52.61939282      48.73296000      50.13327868
H       50.15008884      52.58571235      48.70196328
H       54.04124980      50.50122303      48.99956485
H       52.70388428      52.23735248      47.93752261
H       46.05801100      50.55807527      50.95854185
H       47.43783076      50.33422776      51.96086825
H       46.68771869      52.04403543      51.85520477
