21
Lattice="100.0 0.0 0.0 0.0 100.0 0.0 0.0 0.0 100.0" Properties=species:S:1:pos:R:3 Energy=-406288.5625 Energy_pyscf=-406272.0925898713 Energy_nn=-406288.90625 pbc="F F F"
C       52.29605568      49.42701029      49.37184931
C       50.78070599      51.70268097      48.75108621
C       52.85117845      50.51363084      48.62799647
C       52.14050569      51.68403066      48.22534490
C       46.94540348      51.37370371      50.79548488
C       51.06761972      49.45679643      49.80397945
C       50.35918655      50.71346914      49.59931216
O       49.21829538      48.15922549      50.63252741
O       47.90607029      51.69899678      48.60383102
O       51.18523953      47.61549695      51.45197087
C       50.43315626      48.35335107      50.67013132
C       47.95719109      51.21416790      49.69953748
O       49.17726680      50.86109993      50.31055693
H       50.57446888      47.09762296      52.01418318
H       52.86060688      48.52004183      49.52865742
H       50.21914215      52.63647097      48.36855278
H       53.91613469      50.48179681      48.29316329
H       52.57004377      52.46118913      47.62471394
H       46.60334265      52.42284417      51.02348388
H       46.00008559      51.02845797      50.27849582
H       47.18178262      50.86399658      51.73535693
