21
Lattice="100.0 0.0 0.0 0.0 100.0 0.0 0.0 0.0 100.0" Properties=species:S:1:pos:R:3 Energy=-406261.8125 Energy_pyscf=-406245.01686655905 Energy_nn=-406265.15625 pbc="F F F"
C       52.30189755      49.43555750      49.10003180
C       51.31688855      52.06233614      48.95615102
C       53.02572105      50.42382940      48.64642106
C       52.74266022      51.85887780      48.77072566
C       46.90854537      51.28622959      49.96794028
C       51.06684728      49.67740452      49.74119787
C       50.54110041      50.99878982      49.68398035
O       50.03892112      49.04177065      51.83954074
O       48.44111754      49.82367904      49.03185491
O       50.91621843      47.36702907      50.50208306
C       50.51033911      48.71720507      50.67411452
C       48.23594184      50.75585784      49.68666346
O       49.43093239      51.29287480      50.31779295
H       50.73551718      47.02223827      51.36810253
H       52.66144000      48.34132862      48.96774721
H       50.97496461      53.11430839      48.97030097
H       53.93975898      50.21075483      47.96098435
H       53.38594445      52.60584475      48.31643834
H       46.96115090      52.29702038      50.22393944
H       46.17336284      51.15876591      49.14152263
H       46.63154862      50.87988669      50.94221693
