21
Lattice="100.0 0.0 0.0 0.0 100.0 0.0 0.0 0.0 100.0" Properties=species:S:1:pos:R:3 Energy=-406280.875 Energy_pyscf=-406274.7286829754 Energy_nn=-406284.28125 pbc="F F F"
C       52.30794882      49.40514605      49.62535976
C       51.27567010      52.03023333      49.38724635
C       53.00429225      50.41998382      49.05226311
C       52.53157199      51.66757609      48.73401008
C       46.99127152      51.29820063      50.87790610
C       51.08345934      49.76449477      50.36070167
C       50.53446269      51.02301663      50.04520041
O       49.08302219      48.75804882      51.36815584
O       48.01889357      50.19314865      49.00756405
O       51.09746638      47.66963978      51.47186668
C       50.33589525      48.76684551      51.08613135
C       48.08598052      50.79044001      50.03641511
O       49.37516224      51.31143183      50.64924081
H       50.46038181      47.15063533      52.00841485
H       52.67483318      48.38832405      49.78642128
H       50.87125945      53.02459276      49.26204131
H       53.90388889      49.95449487      48.51867798
H       52.96940883      52.29424304      47.97228215
H       46.07203584      51.40340474      50.32395917
H       46.83698882      50.65089238      51.73292277
H       47.18543713      52.20183441      51.49650247
