21
Lattice="100.0 0.0 0.0 0.0 100.0 0.0 0.0 0.0 100.0" Properties=species:S:1:pos:R:3 Energy=-406269.28125 Energy_pyscf=-406262.9726308571 Energy_nn=-406266.59375 pbc="F F F"
C       52.31153427      48.89827810      48.84310101
C       51.28911927      51.52272600      49.11222499
C       52.88822322      50.02040494      48.21750632
C       52.39798905      51.36206539      48.24380388
C       46.98458549      50.61121854      50.44849337
C       51.10423501      49.18652625      49.48930256
C       50.57082343      50.45131449      49.64840201
O       49.44413650      47.46544854      50.20326025
O       48.10600822      51.18722702      48.37915978
O       50.93445685      48.15680163      51.80253960
C       50.49348000      48.09907803      50.47827972
C       48.15350735      50.88816136      49.50327044
O       49.33222454      50.46936826      50.25148493
H       50.31666259      47.62572724      52.34985492
H       52.86389574      47.89764955      48.73013426
H       50.80303140      52.43533179      49.27151716
H       53.84152147      49.88955083      47.62203029
H       52.87594254      52.20686052      47.67760437
H       46.16449672      50.30831954      49.84220838
H       47.27565446      49.93463408      51.20539793
H       46.87627647      51.50006099      50.93494898
