21
Lattice="100.0 0.0 0.0 0.0 100.0 0.0 0.0 0.0 100.0" Properties=species:S:1:pos:R:3 Energy=-406264.65625 Energy_pyscf=-406244.7911052892 Energy_nn=-406270.96875 pbc="F F F"
C       52.18665230      49.46205736      49.86863891
C       51.08677977      52.04820451      49.45805320
C       52.90548656      50.46417155      49.13742008
C       52.32091832      51.67586751      48.94156362
C       46.85198217      50.90985677      51.07774778
C       50.80984280      49.81088428      50.41339329
C       50.30741985      51.09889989      50.10634324
O       49.28756008      48.94323792      52.06081874
O       47.98017809      50.71686234      48.99755700
O       50.78543574      47.45888071      50.97992337
C       50.22601506      48.75712193      51.10110318
C       48.06773328      50.84485853      50.14692971
O       49.19967039      51.28768435      50.70344799
H       50.40850855      47.24220608      51.84632977
H       52.57031567      48.43994712      50.11405529
H       50.65370181      52.93493360      49.15215627
H       53.90345337      50.16817440      48.79251626
H       52.94019327      52.42150642      48.34824768
H       46.82812587      50.40832313      51.99396879
H       46.98314860      52.00791411      51.45771809
H       45.97827622      50.77000249      50.49608531
