21
Lattice="100.0 0.0 0.0 0.0 100.0 0.0 0.0 0.0 100.0" Properties=species:S:1:pos:R:3 Energy=-406265.71875 Energy_pyscf=-406268.833117632 Energy_nn=-406266.4375 pbc="F F F"
C       52.38455077      49.41570713      49.74238236
C       51.23661051      51.91423060      49.39390349
C       53.06382662      50.26388347      48.93325706
C       52.43910624      51.55051346      48.71450586
C       46.86805110      51.40281044      50.87272677
C       51.07629653      49.77852850      50.34891347
C       50.47350133      50.98671943      50.10841890
O       49.20352252      48.81278151      51.65002250
O       47.94107305      50.42293618      49.00714784
O       51.24775784      47.77526591      51.41879096
C       50.26609503      48.71371695      51.02914516
C       48.10874494      50.93739773      50.09053065
O       49.26546168      51.23349875      50.77573651
H       50.90496958      47.00452437      51.91996286
H       52.54284359      48.35700426      49.83473804
H       50.91814997      52.94929558      49.24514179
H       53.94944435      49.96518780      48.46891053
H       52.98406650      52.29746531      48.04340827
H       45.99445052      51.57746544      50.29974606
H       46.67905329      50.46288145      51.40086872
H       47.15710003      52.28112797      51.52259648
