21
Lattice="100.0 0.0 0.0 0.0 100.0 0.0 0.0 0.0 100.0" Properties=species:S:1:pos:R:3 Energy=-406248.5 Energy_pyscf=-406241.70259418525 Energy_nn=-406251.21875 pbc="F F F"
C       52.50602257      49.38272996      49.44322646
C       51.12892959      51.88909371      49.29562148
C       52.79867623      50.42170233      48.55056835
C       52.33894081      51.75057307      48.65534473
C       46.99094060      51.54384584      50.41184516
C       51.29646737      49.47278506      49.97189121
C       50.57500497      50.66958225      49.79929221
O       49.56014041      47.87684382      50.69818489
O       48.36653856      51.44971178      48.59131704
O       51.75400200      47.92483771      51.74893688
C       50.67884492      48.36300485      50.70056442
C       48.31403110      51.23738105      49.75967798
O       49.32261704      50.95040557      50.58384061
H       51.36998438      47.11360736      52.30484509
H       53.20544842      48.54841354      49.55443730
H       50.42760772      52.68034399      49.04332888
H       53.66256437      50.39894345      47.73663824
H       52.81367710      52.56872880      48.16219777
H       46.50005496      52.41939038      49.96777917
H       46.36960813      50.66578154      50.26905065
H       47.02520125      51.49222714      51.46844491
