21
Lattice="100.0 0.0 0.0 0.0 100.0 0.0 0.0 0.0 100.0" Properties=species:S:1:pos:R:3 Energy=-406284.96875 Energy_pyscf=-406279.689629013 Energy_nn=-406286.125 pbc="F F F"
C       52.25971287      49.11917733      49.01267768
C       51.13323655      51.72235318      49.00234690
C       52.90215363      50.14466185      48.24744138
C       52.36961779      51.42770972      48.38377434
C       46.90868300      51.21641855      50.21927872
C       51.08864456      49.44562052      49.81996469
C       50.47606148      50.72800658      49.83534267
O       50.86351777      47.15261227      50.41561305
O       48.10145827      50.08866034      48.41408518
O       49.85478364      48.67011480      51.71160626
C       50.63719262      48.32674567      50.65780580
C       48.08692598      50.75458661      49.43264169
O       49.22750110      50.89881209      50.26699724
H       49.54233107      47.86389220      52.15747455
H       52.54232366      48.04596067      48.90357299
H       50.58197103      52.65477867      48.88022072
H       53.80716982      49.89063969      47.75721787
H       53.07979056      52.15246732      47.82819136
H       46.41467979      50.26848654      50.49723244
H       47.31313110      51.66026084      51.18792652
H       46.27574420      51.91694563      49.68711847
