21
Lattice="100.0 0.0 0.0 0.0 100.0 0.0 0.0 0.0 100.0" Properties=species:S:1:pos:R:3 Energy=-406285.46875 Energy_pyscf=-406281.7082644152 Energy_nn=-406285.9375 pbc="F F F"
C       52.45198668      49.40428114      49.71440641
C       51.41939671      51.85274160      49.31834292
C       53.18101547      50.27339918      48.95779529
C       52.67443871      51.51883913      48.74875969
C       46.94193709      51.28539127      50.86719477
C       51.11270711      49.71770567      50.29961401
C       50.53539123      50.91994955      49.93302185
O       49.43294653      48.93816099      51.92635641
O       47.87983000      49.88523325      49.15691812
O       51.14479315      47.65498835      51.23873277
C       50.42068277      48.77796175      51.16938456
C       48.07449487      50.70942375      49.99577244
O       49.25912901      51.31857699      50.38006373
H       50.67606603      47.16696386      51.94816258
H       52.72893397      48.44656734      50.05798426
H       51.10565447      52.90725801      49.15896465
H       54.14908740      49.89037909      48.56610160
H       53.19913020      52.31870541      48.15458008
H       47.24985432      51.36663388      51.85651372
H       46.67937303      52.29938313      50.44269484
H       45.99915055      50.62636615      50.94249543
