21
Lattice="100.0 0.0 0.0 0.0 100.0 0.0 0.0 0.0 100.0" Properties=species:S:1:pos:R:3 Energy=-406269.5 Energy_pyscf=-406259.77392797515 Energy_nn=-406270.21875 pbc="F F F"
C       52.37792970      49.44699183      49.79156140
C       51.36341850      52.03696727      49.17191307
C       53.14570653      50.30922221      49.05972259
C       52.70712478      51.53050589      48.75569723
C       47.06651116      51.21095978      50.86375639
C       51.05945074      49.73702621      50.31546075
C       50.53347023      51.07067627      49.86024631
O       49.47683729      49.02056288      52.09541373
O       47.79339092      49.89383923      48.94937972
O       51.00142762      47.56945729      51.20117611
C       50.39917932      48.80836131      51.17647705
C       48.04734031      50.62052468      49.87747726
O       49.27923535      51.37952049      50.16124895
H       50.56560464      47.18795551      52.01144661
H       52.72391989      48.49193575      50.03142318
H       51.12055745      53.10964796      48.99264314
H       53.99188710      49.76755483      48.74252372
H       53.33996994      52.27233241      48.16869880
H       47.46405387      51.00128808      51.97197489
H       46.77739774      52.29454984      50.69630722
H       46.10109281      50.52195862      50.94128038
