21
Lattice="100.0 0.0 0.0 0.0 100.0 0.0 0.0 0.0 100.0" Properties=species:S:1:pos:R:3 Energy=-406253.40625 Energy_pyscf=-406238.7094031737 Energy_nn=-406255.78125 pbc="F F F"
C       52.36397540      49.46400342      49.70625222
C       51.19921111      51.91125875      49.33413895
C       52.87675072      50.33856230      48.87219221
C       52.32403366      51.53085414      48.48487782
C       46.98524251      51.39283718      50.88801045
C       50.93903179      49.75955514      50.24032000
C       50.42268945      50.97126453      50.05618115
O       49.29036494      48.69100393      51.67957421
O       48.07084392      50.40968277      48.99255332
O       51.28945182      47.73616346      51.62013469
C       50.51688967      48.77924137      51.23565445
C       48.17629890      50.97121137      50.06569674
O       49.38507655      51.26181074      50.76636131
H       50.61079136      47.05937158      51.70542252
H       52.78117697      48.37529650      49.77598128
H       50.87477494      52.99938930      49.40965184
H       53.86932586      49.96533399      48.59868416
H       52.95662177      52.24249745      48.02655560
H       46.27031033      51.68111337      50.03914590
H       46.47925763      50.46463309      51.44054356
H       47.28288451      52.12647885      51.72767471
