21
Lattice="100.0 0.0 0.0 0.0 100.0 0.0 0.0 0.0 100.0" Properties=species:S:1:pos:R:3 Energy=-406250.9375 Energy_pyscf=-406243.698461868 Energy_nn=-406253.125 pbc="F F F"
C       52.38805304      49.48720686      49.48498084
C       51.23672869      51.98153485      49.66081687
C       52.89061136      50.47977725      48.75287337
C       52.23809044      51.72045531      48.69506310
C       46.87262524      51.53079227      50.60888639
C       51.21911192      49.80386498      50.31063525
C       50.52766407      50.95564355      50.36119760
O       49.58160698      48.00577889      50.67000716
O       48.34044003      51.50577338      48.71823076
O       51.36267242      48.01581295      51.94413517
C       50.61287810      48.58218374      50.93927679
C       48.21475794      51.16995298      49.85458264
O       49.27653437      51.01470979      50.83753769
H       51.08401799      47.08308629      52.17274923
H       52.91422775      48.42533015      49.66813118
H       50.81174122      52.90246250      49.85001762
H       53.69712269      50.10081464      48.12740043
H       52.41329747      52.62803616      48.02000161
H       46.39789635      52.41980449      50.30405279
H       46.29836034      50.61100544      50.56313847
H       46.99984046      51.45906741      51.76492526
