21
Lattice="100.0 0.0 0.0 0.0 100.0 0.0 0.0 0.0 100.0" Properties=species:S:1:pos:R:3 Energy=-406265.375 Energy_pyscf=-406270.0187744465 Energy_nn=-406266.90625 pbc="F F F"
C       52.60859250      49.46103025      49.37026992
C       51.18046230      51.76342713      49.12571620
C       53.10747093      50.41744542      48.53025315
C       52.45723565      51.68648738      48.52844911
C       46.94238827      51.52939153      50.50139086
C       51.26840933      49.55694226      50.08724734
C       50.60402460      50.75707845      49.79348350
O       49.54732653      47.92621762      50.97681267
O       48.12257702      51.67544056      48.44308011
O       51.67750931      47.74405090      51.63531182
C       50.69341462      48.33812539      50.88654971
C       48.14087184      51.40286565      49.60453977
O       49.33590308      50.93107316      50.38099998
H       51.13913385      47.04616113      52.05721752
H       53.22282372      48.58301167      49.74127407
H       50.56035263      52.69727624      49.11866588
H       53.94646951      50.49788427      47.82568777
H       52.77585028      52.50642937      47.94934345
H       46.29113509      52.36301656      50.14389307
H       46.32645246      50.55781182      50.38384082
H       47.08151711      51.40945630      51.57470448
