21
Lattice="100.0 0.0 0.0 0.0 100.0 0.0 0.0 0.0 100.0" Properties=species:S:1:pos:R:3 Energy=-406246.0625 Energy_pyscf=-406236.8218613201 Energy_nn=-406249.3125 pbc="F F F"
C       52.20917056      49.57551074      49.85242504
C       51.13670820      52.03815499      49.48935976
C       52.95834211      50.32760330      48.98992261
C       52.36308104      51.66816591      48.94933149
C       46.87113395      51.01993461      51.03127750
C       50.94724426      49.90674952      50.41797063
C       50.40392549      51.17734326      50.23316404
O       49.45308713      49.13553387      52.04391605
O       47.82238126      50.24701414      48.86509255
O       50.73337451      47.66874010      51.03550687
C       50.21043590      48.93303612      51.15496801
C       47.95834090      50.61826472      50.10591346
O       49.18776112      51.30334043      50.74277803
H       50.32523310      47.31155011      51.88379780
H       52.44645409      48.52620948      50.10530376
H       50.83961012      53.19507960      49.24181837
H       53.91665453      49.96716101      48.78107043
H       52.82279228      52.37536491      48.32977276
H       46.49736309      49.98489097      51.55295758
H       47.30058500      51.62161563      51.84120598
H       45.84548600      51.28096076      50.53580564
