21
Lattice="100.0 0.0 0.0 0.0 100.0 0.0 0.0 0.0 100.0" Properties=species:S:1:pos:R:3 Energy=-406243.21875 Energy_pyscf=-406206.3658652734 Energy_nn=-406244.75 pbc="F F F"
C       52.21221357      49.76682019      49.63269922
C       50.63861388      51.44123393      48.46327622
C       52.85073906      50.77434225      48.90555922
C       51.93125972      51.67648836      48.23371780
C       46.52994272      51.27449199      50.03608693
C       50.81415183      49.57502250      49.76248952
C       49.95710467      50.40840926      49.13333261
O       49.28543232      48.40902914      50.78158271
O       48.62908273      52.85235165      49.84721783
O       51.45457115      47.83198963      51.40839654
C       50.40007721      48.55523763      50.80402833
C       47.97651790      51.63121911      49.92113803
O       48.54360682      50.52834010      49.20092098
H       51.25870981      47.57528825      52.34411275
H       52.85830321      48.96508993      50.06456076
H       49.71337704      51.98792278      47.96891070
H       53.88358156      50.72113594      48.99641134
H       52.22333703      52.54104434      47.60872120
H       46.23252361      50.61632645      51.01960137
H       45.76117134      52.01298302      50.23277610
H       46.42262189      50.77160926      49.03530819
