21
Lattice="100.0 0.0 0.0 0.0 100.0 0.0 0.0 0.0 100.0" Properties=species:S:1:pos:R:3 Energy=-406268.03125 Energy_pyscf=-406258.6612922537 Energy_nn=-406272.09375 pbc="F F F"
C       52.29026161      49.70415870      49.79892485
C       51.09560753      52.07345574      48.88597758
C       52.91217053      50.69059245      49.02879578
C       52.37201867      51.74850437      48.37885355
C       46.86717219      51.54755204      50.47168091
C       50.89997606      49.92228062      50.18473102
C       50.36462515      51.15901013      49.86557173
O       49.63784905      49.21660189      51.98238727
O       48.09773584      49.90132165      49.23518634
O       50.20974497      47.49501888      50.62146402
C       50.31474070      48.83014162      51.00337301
C       48.08826429      50.91096336      49.90455724
O       49.13902857      51.67125808      50.28953177
H       49.67203464      47.13174146      51.33257301
H       52.82313255      48.81534517      50.15172420
H       50.36010035      52.87804871      48.69724981
H       53.91524823      50.58101701      48.67149409
H       53.01626567      52.51474098      47.92661759
H       47.23225673      51.97676839      51.46373730
H       46.63377682      52.27748985      49.76128831
H       46.08805450      50.78758607      50.76614687
