21
Lattice="100.0 0.0 0.0 0.0 100.0 0.0 0.0 0.0 100.0" Properties=species:S:1:pos:R:3 Energy=-406238.90625 Energy_pyscf=-406230.0122621515 Energy_nn=-406246.625 pbc="F F F"
C       52.52192127      49.42013351      49.52816405
C       51.26480584      52.02000622      49.69944076
C       52.86423349      50.46046346      48.66631475
C       52.10613477      51.62704289      48.73009807
C       46.85756031      51.48004204      50.68278500
C       51.28698492      49.62614475      50.20554777
C       50.60929278      50.88823153      50.37484347
O       49.42857252      48.11604983      50.91488532
O       48.14795881      51.57135348      48.64755028
O       51.49023591      47.97566283      51.76651088
C       50.55555745      48.66891788      51.03538482
C       48.13058804      51.31157897      49.77001763
O       49.30270094      51.10862680      50.74551255
H       51.19007475      47.08798189      52.06637924
H       52.93761980      48.39383722      49.71970913
H       50.93958851      52.99304485      49.78083970
H       53.79080582      50.19372094      48.21165953
H       52.48202614      52.54649885      48.19421812
H       46.20754663      52.35658965      50.19703531
H       46.10682432      50.61255209      50.63335336
H       47.14101404      51.42674569      51.73009354
