21
Lattice="100.0 0.0 0.0 0.0 100.0 0.0 0.0 0.0 100.0" Properties=species:S:1:pos:R:3 Energy=-406293.5625 Energy_pyscf=-406283.1874482809 Energy_nn=-406287.46875 pbc="F F F"
C       52.31516032      49.80880549      49.74698131
C       50.49136354      51.36646036      48.27151284
C       52.80537547      50.83859896      48.83838434
C       51.83886652      51.61348117      48.14727908
C       46.55829008      51.27133056      49.97802792
C       50.92903739      49.56991487      49.95611964
C       50.01699447      50.42142497      49.25622676
O       49.16776200      48.16607082      50.99433756
O       48.54857580      52.62804520      50.14094580
O       51.40865594      47.86501167      51.46287710
C       50.35018411      48.57027898      50.90378409
C       48.04265211      51.52042044      49.87729004
O       48.66699742      50.35973828      49.41731106
H       51.02560244      47.48997353      52.28681029
H       53.08742460      49.15708093      50.23757839
H       49.74939905      51.92288260      47.79734663
H       53.86736417      51.08302746      48.65857831
H       52.22667745      52.38999712      47.48179687
H       46.37716204      50.32713794      50.41746386
H       46.05196573      52.09872713      50.57496805
H       46.15041844      51.47547731      48.93886546
