21
Lattice="100.0 0.0 0.0 0.0 100.0 0.0 0.0 0.0 100.0" Properties=species:S:1:pos:R:3 Energy=-406291.3125 Energy_pyscf=-406245.2282185087 Energy_nn=-406288.21875 pbc="F F F"
C       52.23181230      50.20945786      50.37183446
C       50.71655169      51.66250129      48.53950079
C       52.84525442      50.97264743      49.36310978
C       52.07951726      51.66583783      48.48862910
C       46.54283640      51.02542362      50.66511603
C       50.73805374      50.12717087      50.48709286
C       49.99258529      51.01089251      49.63439732
O       48.80761695      48.99555049      51.76528652
O       48.22404305      52.25928518      51.66297088
O       50.97028419      48.22771742      51.87152214
C       50.17389444      49.13148108      51.31190893
C       47.99534062      51.45848129      50.85964121
O       48.73731324      51.15838371      49.75251132
H       50.47061158      47.77106111      52.54411409
H       52.69970165      49.49863217      50.99648189
H       50.11283495      52.13410126      47.77607161
H       53.98902161      51.04202994      49.38829363
H       52.48743878      52.14725814      47.62223852
H       46.40117742      49.94743778      50.52693764
H       46.00221096      51.60771970      51.51980314
H       46.16328255      51.62283150      49.80164102
