21
Lattice="100.0 0.0 0.0 0.0 100.0 0.0 0.0 0.0 100.0" Properties=species:S:1:pos:R:3 Energy=-406261.875 Energy_pyscf=-406243.0734726319 Energy_nn=-406262.375 pbc="F F F"
C       52.20447651      49.65382703      49.90793851
C       51.03550680      52.14216366      49.32459622
C       52.91233342      50.61644359      49.23684606
C       52.30590686      51.74737364      48.84688526
C       46.98301777      50.98339750      51.41636018
C       50.91386317      49.89011220      50.45484393
C       50.33273773      51.27027984      50.17894295
O       48.84892031      48.52947038      51.41468554
O       47.85170853      50.95545091      49.14704394
O       50.95298964      47.96914368      51.69224016
C       50.16535576      48.84240041      51.22381999
C       48.07762927      51.11948733      50.27873602
O       49.31709029      51.63168758      50.94743956
H       50.52158063      47.14466030      51.86688383
H       52.49663250      48.71767479      50.09024389
H       50.54734009      52.94374883      48.82378130
H       53.95266118      50.41156185      48.97741413
H       52.73732748      52.34205376      48.08631725
H       46.09411564      50.64465458      50.81386417
H       47.35174816      50.47137557      52.28365897
H       46.73635607      52.08476524      51.72733013
