21
Lattice="100.0 0.0 0.0 0.0 100.0 0.0 0.0 0.0 100.0" Properties=species:S:1:pos:R:3 Energy=-406253.4375 Energy_pyscf=-406243.4862308696 Energy_nn=-406253.09375 pbc="F F F"
C       52.25297610      49.56400296      50.04237583
C       50.77371164      51.99303546      49.30716759
C       52.97702581      50.56879801      49.28821940
C       52.17431661      51.70254368      48.89465482
C       46.92574993      51.38754061      51.28836178
C       50.85391971      49.80060247      50.42889006
C       50.26966167      51.09810131      50.27084969
O       49.03463138      48.67879819      51.14896406
O       47.61162370      50.94314606      49.10736110
O       51.08518983      47.73044803      51.61448601
C       50.16457983      48.66535320      51.04989640
C       47.91454671      51.42743206      50.18140173
O       49.15359464      51.44051122      50.88190039
H       50.77518818      46.95766098      52.00616324
H       52.74390895      48.58610615      50.18806272
H       50.12149805      52.64756367      48.83983987
H       53.98782014      50.42657072      48.86342614
H       52.55561609      52.51234277      48.16681860
H       45.88868361      51.07327674      51.02219816
H       47.30146466      50.52947147      51.88304949
H       46.91694270      52.28894865      51.76426499
