21
Lattice="100.0 0.0 0.0 0.0 100.0 0.0 0.0 0.0 100.0" Properties=species:S:1:pos:R:3 Energy=-406261.96875 Energy_pyscf=-406252.09634891467 Energy_nn=-406262.75 pbc="F F F"
C       52.38826446      49.69381158      49.84050160
C       51.29352394      52.12642324      49.07678002
C       53.06407809      50.53543211      49.05666207
C       52.47898765      51.74475350      48.53738481
C       46.70762028      51.52243323      50.57530360
C       51.00638073      49.99628590      50.10107740
C       50.39905735      51.21234126      49.82931774
O       49.66818380      49.44426985      51.78976027
O       47.89843400      49.64696563      49.44037998
O       50.37025085      47.68674416      50.49118824
C       50.40307756      48.97141568      50.95469613
C       47.94805008      50.72762600      50.00610378
O       49.03306262      51.58733102      50.03850515
H       49.70231498      47.13538821      51.01207454
H       52.89742014      48.76109298      50.07100975
H       50.66307048      52.81675080      48.64578003
H       54.11730108      50.44105606      48.78767526
H       52.88562708      52.38846263      47.81890174
H       46.94933721      52.28413140      51.44625816
H       46.23530483      52.22333033      49.95112155
H       45.95267577      50.87786824      50.91650855
