21
Lattice="100.0 0.0 0.0 0.0 100.0 0.0 0.0 0.0 100.0" Properties=species:S:1:pos:R:3 Energy=-406258.5 Energy_pyscf=-406243.6746475702 Energy_nn=-406260.125 pbc="F F F"
C       52.51997889      49.83328527      49.81092930
C       50.84555399      51.23005082      48.28251201
C       53.01754672      51.01869738      49.03737472
C       52.10002666      51.61944549      48.31897184
C       46.79248854      51.56797357      49.82807540
C       51.12543660      49.71593963      50.05369886
C       50.21051624      50.43206117      49.26438592
O       49.49307340      49.17894441      51.66919937
O       48.84210070      52.25262166      50.92403740
O       51.42917983      47.89911375      51.46504710
C       50.62082737      49.01411598      51.24647101
C       48.28514089      51.60403999      50.05532207
O       48.83981053      50.54502616      49.49804225
H       50.77756201      47.31147639      51.94944369
H       53.18599210      49.05798694      50.02733343
H       50.09021026      51.75266334      47.74065461
H       54.11639895      51.23104317      49.05978563
H       52.55951670      52.48999432      47.86730302
H       46.33506877      50.79048009      50.35215501
H       46.38611008      52.53394241      50.11664384
H       46.74565711      51.23689260      48.72849915
