21
Lattice="100.0 0.0 0.0 0.0 100.0 0.0 0.0 0.0 100.0" Properties=species:S:1:pos:R:3 Energy=-406293.78125 Energy_pyscf=-406284.8267773584 Energy_nn=-406289.40625 pbc="F F F"
C       52.25398933      49.40551879      49.69460123
C       51.20958015      51.93417035      49.38622208
C       52.95412463      50.28436006      48.95673193
C       52.45215601      51.53143589      48.68922947
C       46.97849513      51.45406031      50.88771962
C       51.00784641      49.71043958      50.31902863
C       50.41753404      50.92032078      49.99822654
O       49.19040351      48.57912290      51.48330132
O       47.92027894      50.20771086      49.00208907
O       51.22037366      47.64865995      51.33838192
C       50.34140024      48.68555333      51.11437725
C       48.02737090      50.83368231      50.03408869
O       49.25924908      51.28149480      50.59511545
H       50.79220599      47.00815657      51.94945307
H       52.71216106      48.45151981      49.93755616
H       50.86084799      53.04861520      49.30704207
H       53.95217309      50.06681147      48.58689065
H       52.89428010      52.41544475      48.22096855
H       46.04449098      51.51960544      50.35166640
H       46.88287307      50.74362951      51.69887958
H       47.36018728      52.42145228      51.26797181
