21
Lattice="100.0 0.0 0.0 0.0 100.0 0.0 0.0 0.0 100.0" Properties=species:S:1:pos:R:3 Energy=-406255.71875 Energy_pyscf=-406254.14126489474 Energy_nn=-406257.0625 pbc="F F F"
C       52.53328479      49.41443763      49.27675591
C       51.17138184      51.84179492      49.35204680
C       52.95059189      50.46125214      48.51986711
C       52.25501812      51.63953929      48.48237264
C       46.88692452      51.54184477      50.40087894
C       51.34271136      49.60467391      50.04197879
C       50.52972067      50.81870935      49.95339513
O       49.61474619      48.07958366      50.78577626
O       48.32172956      51.56430016      48.46416335
O       51.75364986      47.72192238      51.61269285
C       50.77849676      48.35653403      50.80864188
C       48.04235607      51.17858032      49.57418408
O       49.17903992      50.88956197      50.40578704
H       51.19800066      47.10781036      52.13507316
H       53.24562587      48.57530649      49.53851869
H       50.65271549      52.70639713      49.29628582
H       53.84478821      50.31519265      47.94419105
H       52.74210789      52.50529430      48.07678647
H       46.31262632      52.26735125      49.94295791
H       46.48642542      50.50369808      50.62739551
H       47.21398906      51.80342440      51.36126996
