21
Lattice="100.0 0.0 0.0 0.0 100.0 0.0 0.0 0.0 100.0" Properties=species:S:1:pos:R:3 Energy=-406253.40625 Energy_pyscf=-406250.1486179659 Energy_nn=-406254.0625 pbc="F F F"
C       52.30021282      50.10656622      50.53777956
C       50.89235287      51.32247326      48.40263102
C       52.89772138      50.88081669      49.50136953
C       52.19890187      51.27297769      48.39468613
C       46.74312712      50.99174108      50.79373355
C       50.84512271      50.00011548      50.65175302
C       50.22814925      50.69738725      49.61835270
O       49.13846966      48.51707546      51.27597586
O       48.79522604      52.31090969      51.09258315
O       51.10656278      48.19027541      52.17240585
C       50.27907097      48.90035969      51.41924323
C       48.15497968      51.40880329      50.56605313
O       48.83639060      50.49769308      49.65296137
H       50.50605720      47.49197749      52.53391647
H       52.87651630      49.71963268      51.26767849
H       50.13214710      52.01202897      47.79149601
H       53.95933763      51.26773679      49.73719009
H       52.56497227      51.90896545      47.59330900
H       46.72420689      50.34918158      51.62437697
H       45.99725345      51.77070088      50.90160768
H       46.43619381      50.18717473      50.02167357
