21
Lattice="100.0 0.0 0.0 0.0 100.0 0.0 0.0 0.0 100.0" Properties=species:S:1:pos:R:3 Energy=-406241.34375 Energy_pyscf=-406221.85392975487 Energy_nn=-406246.15625 pbc="F F F"
C       52.27247691      49.38257695      49.64541266
C       51.28612064      51.87481940      49.26916694
C       52.96839138      50.29441350      48.94180850
C       52.51419469      51.52978858      48.72701386
C       46.98688809      51.31820474      51.02450336
C       51.04286803      49.89914316      50.38875705
C       50.46827878      51.06571100      50.00793640
O       49.25107502      48.30472076      50.77042281
O       48.02065234      50.08520824      49.36687822
O       51.19413839      47.97034456      51.83846882
C       50.40171473      48.69139125      50.95813140
C       48.04435419      50.93241128      50.10397669
O       49.38741448      51.51869332      50.40490277
H       50.42566802      47.39106215      52.08026308
H       52.50964805      48.34787705      49.70713911
H       51.00003860      52.95534604      49.32825687
H       53.99870326      50.20394309      48.50861054
H       52.95659260      52.13302714      48.10553409
H       46.29687552      51.59778481      50.23925824
H       46.42092642      50.58552081      51.59662196
H       47.23936983      52.03878440      51.74124041
