9
Lattice="100.0 0.0 0.0 0.0 100.0 0.0 0.0 0.0 100.0" Properties=species:S:1:pos:R:3 Energy=-167303.53053238086 Energy_pyscf=-167303.36109519165 pbc="F F F"
C       50.31789487      50.76957424      50.82665348
C       50.05550128      50.69651158      49.32768410
C       49.79765369      49.28173185      49.02555099
O       48.92505073      48.80476970      48.36044213
O       51.39149496      51.06037690      51.26390977
H       49.42350255      50.32705122      51.50686232
H       49.31928367      51.42886225      48.99587580
H       51.06260731      50.81611319      48.87156470
H       50.31887262      48.73851956      49.81552050
