9
Lattice="100.0 0.0 0.0 0.0 100.0 0.0 0.0 0.0 100.0" Properties=species:S:1:pos:R:3 Energy=-167293.40874561344 Energy_pyscf=-167293.25040586977 pbc="F F F"
C       50.24566631      51.30642230      50.77267214
C       50.17318548      50.54985600      49.47365128
C       49.50750345      49.24885364      49.32208882
O       48.59716551      49.13735335      48.41995583
O       51.10317777      51.57661539      51.63648704
H       49.24238900      51.56681841      51.03484531
H       49.62087329      51.34041130      48.84788975
H       51.24762332      50.52880498      49.23731306
H       49.73941442      48.31047209      49.72753374
