9
Lattice="100.0 0.0 0.0 0.0 100.0 0.0 0.0 0.0 100.0" Properties=species:S:1:pos:R:3 Energy=-167312.58102009585 Energy_pyscf=-167312.4198732622 pbc="F F F"
C       50.51994791      50.71204581      50.44722495
C       49.45980308      50.82583950      49.40312202
C       48.79299001      49.44592683      49.47465780
O       48.78252398      48.74699343      48.52338236
O       50.30684231      50.77603761      51.65393737
H       51.57000492      50.64177491      50.08275229
H       48.81040291      51.62952199      49.78310018
H       49.87954673      50.88476428      48.39605247
H       48.54106773      49.07034228      50.50836074
