9
Lattice="100.0 0.0 0.0 0.0 100.0 0.0 0.0 0.0 100.0" Properties=species:S:1:pos:R:3 Energy=-167309.33842132118 Energy_pyscf=-167309.17246452754 pbc="F F F"
C       50.53080542      50.71612202      50.42966115
C       49.40385658      50.86849566      49.45201905
C       48.87065027      49.42346710      49.44518806
O       49.00572974      48.59722857      48.61324331
O       50.22633865      50.82930899      51.61188226
H       51.52362003      50.31889161      49.97764605
H       48.74296607      51.71790540      49.83871617
H       49.81979345      51.10279895      48.41321637
H       48.52380284      49.14439824      50.51066087
