9
Lattice="100.0 0.0 0.0 0.0 100.0 0.0 0.0 0.0 100.0" Properties=species:S:1:pos:R:3 Energy=-167311.88907939038 Energy_pyscf=-167311.71062611 pbc="F F F"
C       50.43657789      50.21410838      51.27831681
C       49.90160879      50.65485200      49.92097944
C       49.66829092      49.38774024      49.04322494
O       49.08000125      48.40728907      49.42933779
O       51.23147605      50.76874468      52.00920195
H       49.95667739      49.24007879      51.52734035
H       48.80727147      51.00224128      50.07217398
H       50.38681279      51.51730290      49.34212757
H       50.28154354      49.22388211      48.11749164
