9
Lattice="100.0 0.0 0.0 0.0 100.0 0.0 0.0 0.0 100.0" Properties=species:S:1:pos:R:3 Energy=-167307.97236323755 Energy_pyscf=-167307.80285164854 pbc="F F F"
C       50.27848222      51.09177902      50.71710814
C       50.26873638      50.45041976      49.30175773
C       49.44210458      49.10186756      49.33612852
O       48.70032233      48.83119087      48.41450099
O       51.15591193      50.92936196      51.59205851
H       49.32203465      51.65149299      50.92939219
H       49.67114254      51.15409897      48.68136552
H       51.25349992      50.01243437      49.04301865
H       49.81512873      48.48928387      50.13266482
