9
Lattice="100.0 0.0 0.0 0.0 100.0 0.0 0.0 0.0 100.0" Properties=species:S:1:pos:R:3 Energy=-167307.11662885454 Energy_pyscf=-167306.9484707066 pbc="F F F"
C       50.59200685      50.81776516      50.37198385
C       49.45297155      50.80471437      49.40659261
C       48.89056875      49.36349774      49.44894072
O       48.97499194      48.60582141      48.50681798
O       50.29140925      51.00988849      51.53069752
H       51.61452189      50.31266301      50.12710176
H       48.83879090      51.43735516      50.02269942
H       49.68654409      51.12812766      48.40616543
H       48.30491921      49.24631456      50.42604742
