9
Lattice="100.0 0.0 0.0 0.0 100.0 0.0 0.0 0.0 100.0" Properties=species:S:1:pos:R:3 Energy=-167300.40421258638 Energy_pyscf=-167299.79223826466 pbc="F F F"
C       50.53264909      50.43735838      51.27623008
C       50.77920841      49.85041292      49.78083577
C       49.54909979      49.37018427      48.96568411
O       48.42581798      49.60508548      49.27635637
O       51.41191114      51.11025885      51.88171559
H       49.48279391      50.69306484      51.54878430
H       51.49509526      50.64453230      49.38570457
H       51.42410436      49.00255415      50.05461533
H       49.86239461      48.63483804      48.21604927
