9
Lattice="100.0 0.0 0.0 0.0 100.0 0.0 0.0 0.0 100.0" Properties=species:S:1:pos:R:3 Energy=-167310.08607786056 Energy_pyscf=-167309.91112876515 pbc="F F F"
C       50.77253953      50.78162032      50.60286871
C       50.68144648      49.53814066      49.76309687
C       49.29670349      49.11319654      49.42567914
O       48.90610362      49.36782626      48.28326116
O       51.26608400      50.68578096      51.74704891
H       50.22628774      51.66101858      50.18584791
H       51.19052675      49.59639955      48.80406873
H       51.18237911      48.71543526      50.35572338
H       48.56858929      48.74921692      50.25801220
