9
Lattice="100.0 0.0 0.0 0.0 100.0 0.0 0.0 0.0 100.0" Properties=species:S:1:pos:R:3 Energy=-167310.59786965162 Energy_pyscf=-167310.4443756755 pbc="F F F"
C       50.50253089      50.40169993      51.00070566
C       50.55384186      49.65952433      49.61013137
C       49.45298548      50.10868626      48.69117772
O       48.34403850      49.64273918      48.56077755
O       51.05449708      51.42764080      51.20271588
H       49.70098967      49.91642743      51.59277907
H       51.52429711      50.01585332      49.16668279
H       50.63529793      48.62423471      49.87875891
H       49.73681943      50.94156485      48.05897056
