9
Lattice="100.0 0.0 0.0 0.0 100.0 0.0 0.0 0.0 100.0" Properties=species:S:1:pos:R:3 Energy=-167305.36445432703 Energy_pyscf=-167305.18981834047 pbc="F F F"
C       50.88059548      50.34393020      50.78271626
C       49.97636184      49.27512438      50.40943133
C       48.80272868      49.81585809      49.64798692
O       48.79920395      49.76886326      48.43823250
O       50.54826511      51.12209914      51.60979630
H       51.91723944      50.27597156      50.38414755
H       50.40701243      48.42574029      49.83875403
H       49.76589637      49.04827362      51.44399364
H       47.89065265      50.34590213      50.18520547
