9
Lattice="100.0 0.0 0.0 0.0 100.0 0.0 0.0 0.0 100.0" Properties=species:S:1:pos:R:3 Energy=-167306.1374277217 Energy_pyscf=-167305.95826541766 pbc="F F F"
C       50.87568838      50.26321712      50.89125731
C       50.59589764      49.46381818      49.65251383
C       49.57793670      50.08780943      48.82070331
O       48.41969293      49.74618754      48.82302000
O       50.80388614      51.55505554      51.01093244
H       51.17747855      49.66897639      51.77232023
H       51.60570268      49.28265940      49.19264607
H       50.23515773      48.52326147      50.05732291
H       49.97445550      50.77970123      48.08977016
