9
Lattice="100.0 0.0 0.0 0.0 100.0 0.0 0.0 0.0 100.0" Properties=species:S:1:pos:R:3 Energy=-167311.26169828093 Energy_pyscf=-167311.0884273548 pbc="F F F"
C       50.44108121      50.42093681      50.87951634
C       50.66836678      49.58421450      49.62515504
C       49.45653647      50.06321469      48.75052717
O       48.38789525      49.51484239      48.48788485
O       51.16302619      51.34593019      51.18516110
H       49.58601600      50.15886293      51.44272236
H       51.62843308      49.96377435      49.16861075
H       50.64222930      48.51917942      49.84493459
H       49.53594395      51.14924623      48.36031798
