9
Lattice="100.0 0.0 0.0 0.0 100.0 0.0 0.0 0.0 100.0" Properties=species:S:1:pos:R:3 Energy=-167309.16509815486 Energy_pyscf=-167309.00576678163 pbc="F F F"
C       50.57685039      50.95073406      50.46686276
C       50.76006304      49.81677124      49.58780618
C       49.44833873      49.36740051      48.89806004
O       48.53996091      50.13544422      48.53376854
O       51.31144212      51.19328661      51.43504589
H       49.71691154      51.67785999      50.29077548
H       51.60659678      50.04824259      48.80123014
H       51.19015087      49.06624229      50.25867262
H       49.56049095      48.26582128      48.53637088
