9
Lattice="100.0 0.0 0.0 0.0 100.0 0.0 0.0 0.0 100.0" Properties=species:S:1:pos:R:3 Energy=-167306.32455606194 Energy_pyscf=-167306.11914993642 pbc="F F F"
C       50.86814273      50.29978435      50.89944069
C       49.99301469      49.18479951      50.44357929
C       48.75846934      49.87622163      49.62212824
O       48.57300764      49.57750296      48.48204298
O       50.51000888      51.21819441      51.62160185
H       51.91870184      50.53688283      50.38851021
H       50.47956696      48.38569066      49.82875835
H       49.70696107      48.70234231      51.32742913
H       48.18448305      50.63048829      50.10512883
