9
Lattice="100.0 0.0 0.0 0.0 100.0 0.0 0.0 0.0 100.0" Properties=species:S:1:pos:R:3 Energy=-167305.19520440756 Energy_pyscf=-167305.04013378776 pbc="F F F"
C       50.69685059      50.54370941      50.96746328
C       49.70173523      49.58835941      50.21988317
C       48.78818262      50.13938053      49.13174781
O       47.95777022      49.42801784      48.57426621
O       50.51752667      51.62559796      51.41949293
H       51.66900473      50.02694467      50.77917049
H       50.31528554      48.76249659      49.78288584
H       49.09276113      49.01630880      51.06430146
H       48.94298323      51.28181113      49.08696426
