9
Lattice="100.0 0.0 0.0 0.0 100.0 0.0 0.0 0.0 100.0" Properties=species:S:1:pos:R:3 Energy=-97073.44287309897 pbc="F F F"
C       50.00548493      49.28305185      49.82516813
C       49.40473792      50.69579044      49.87258419
O       51.46229628      49.38896008      49.44824962
H       49.93091831      48.85450835      50.76443108
H       49.63390582      48.62489365      49.02279329
H       48.23649865      50.61758646      49.81052561
H       49.53262093      51.30429522      50.97954688
H       49.82202910      51.37558618      49.03698654
H       51.77022593      49.81244599      50.25366464
