15
Lattice="100.0 0.0 0.0 0.0 100.0 0.0 0.0 0.0 100.0" Properties=species:S:1:pos:R:3 Energy=-170035.28220592384 Energy_pyscf=-170033.34527034813 pbc="F F F" Energy_pyscf_og=-170035.0653122438
C       52.43822436      50.02904566      50.35376646
C       50.95767552      50.11685333      50.25587373
C       50.10927953      49.22757756      51.03657948
C       48.72963668      49.18992439      50.83949176
C       48.16261145      50.18150422      50.09586544
C       48.91907746      51.05652486      49.26077753
C       50.37367131      51.08300329      49.37621252
H       52.84176417      50.14683413      49.32789624
H       52.88499441      50.80607214      50.99782509
H       52.81450365      48.96836236      50.54092755
H       50.69195763      48.41551698      51.73988056
H       48.18372190      48.64670781      51.61121392
H       47.16881784      50.29809263      49.84402742
H       48.31257386      51.49383228      48.46376159
H       50.95264341      51.68267129      48.68268095
