15
Lattice="100.0 0.0 0.0 0.0 100.0 0.0 0.0 0.0 100.0" Properties=species:S:1:pos:R:3 Energy=-170034.07723453033 Energy_pyscf=-170032.96280552182 pbc="F F F" Energy_pyscf_og=-170033.8632310893
C       52.46616659      50.13095815      50.15805660
C       50.92771096      50.06585260      50.18421622
C       50.20318011      48.99095137      50.83507761
C       48.79079297      49.09635179      50.79020475
C       48.18233331      50.02356168      49.94646605
C       48.97867734      50.86808284      49.10142843
C       50.34027800      50.93763439      49.27071457
H       52.78244415      50.46976261      49.17803535
H       52.99408961      50.64656565      50.97091187
H       52.81554419      49.16537555      50.35573130
H       50.75673401      48.64019277      51.70746425
H       48.20107084      48.47084491      51.48604799
H       47.11261578      50.18539065      49.96457114
H       48.53388214      51.76824506      48.43817585
H       50.93072584      51.55036276      48.62434223
