15
Lattice="100.0 0.0 0.0 0.0 100.0 0.0 0.0 0.0 100.0" Properties=species:S:1:pos:R:3 Energy=-170040.91289644534 Energy_pyscf=-170041.0881005139 pbc="F F F" Energy_pyscf_og=-170040.68838540174
C       52.53011717      49.84330051      50.07094251
C       51.06335524      50.03050649      50.02660058
C       50.23935136      49.11216112      50.85189954
C       48.92390331      49.08204782      50.64757010
C       48.23507687      49.86775282      49.60459306
C       49.02203705      50.83584533      48.98541111
C       50.41275278      50.85277138      49.15486232
H       52.91822639      50.29698530      49.16209834
H       53.00018935      50.42860150      50.84715220
H       52.90321676      48.79529570      50.03668844
H       50.74526466      48.46072835      51.62996765
H       48.26390525      48.69315978      51.41362263
H       47.14050076      49.88802498      49.48460582
H       48.51302588      51.50504056      48.28161430
H       51.02530777      51.47199538      48.48060835
