15
Lattice="100.0 0.0 0.0 0.0 100.0 0.0 0.0 0.0 100.0" Properties=species:S:1:pos:R:3 Energy=-170031.91171565873 Energy_pyscf=-170028.554649263 pbc="F F F" Energy_pyscf_og=-170031.6904991692
C       52.40201661      49.89683443      49.99187961
C       50.91389879      50.06170148      50.18307816
C       50.10863303      48.99442722      50.86218689
C       48.79083464      49.07259649      50.74438500
C       48.10399725      49.94786965      49.79866222
C       48.87631149      50.80452914      49.04793121
C       50.24524990      50.98611169      49.42021501
H       53.06746481      49.76506480      50.85064037
H       52.36459029      48.96503776      49.34298252
H       52.95360398      50.66333211      49.28713648
H       50.59034399      48.24850450      51.55783814
H       48.01802647      48.46143783      51.23997834
H       47.08483147      49.99661992      49.59672237
H       48.40688779      51.37973424      48.24486709
H       51.00085141      51.70383410      49.08066768
