15
Lattice="100.0 0.0 0.0 0.0 100.0 0.0 0.0 0.0 100.0" Properties=species:S:1:pos:R:3 Energy=-170037.6620022088 Energy_pyscf=-170038.8261961185 pbc="F F F" Energy_pyscf_og=-170037.44282807474
C       52.43092546      49.86741429      50.40307060
C       50.88739548      49.91487044      50.23751846
C       50.12523453      48.96446915      50.95408276
C       48.69341457      49.08200837      50.90197215
C       48.11044578      49.93039947      50.05103145
C       48.90485800      50.86012570      49.27474679
C       50.26245641      50.86046579      49.36717805
H       52.60081644      50.46111014      51.38353846
H       52.58734785      48.81136911      50.42752362
H       52.86813102      50.37216967      49.48111893
H       50.73297535      48.22481740      51.44639275
H       48.12351263      48.35574957      51.54322204
H       46.98412102      49.98721591      49.88980424
H       48.32474851      51.35911519      48.50356469
H       50.79258554      51.54350407      48.80709791
