15
Lattice="100.0 0.0 0.0 0.0 100.0 0.0 0.0 0.0 100.0" Properties=species:S:1:pos:R:3 Energy=-170037.06816870713 Energy_pyscf=-170034.56717866112 pbc="F F F" Energy_pyscf_og=-170036.8486965823
C       52.28327493      49.92961440      50.34366110
C       50.86121537      49.92585645      50.08181323
C       50.03721818      49.07934528      50.80409824
C       48.66268464      49.16307015      50.82652858
C       48.04928952      49.95852452      49.89493075
C       48.82798538      50.87506696      49.27492352
C       50.19125592      50.87752200      49.20795753
H       52.73090880      50.89936837      50.62822805
H       52.53633401      49.15717946      51.12691205
H       52.97807028      49.60367730      49.60057851
H       50.56510920      48.44559389      51.51092526
H       47.90722628      48.55530398      51.34642811
H       46.98766214      49.97564882      49.79962897
H       48.34589421      51.58834278      48.60766299
H       50.86535988      51.39653788      48.44486927
