15
Lattice="100.0 0.0 0.0 0.0 100.0 0.0 0.0 0.0 100.0" Properties=species:S:1:pos:R:3 Energy=-170041.41086919577 Energy_pyscf=-170041.27655380825 pbc="F F F" Energy_pyscf_og=-170041.1948980673
C       52.33301795      50.00008510      50.26144168
C       50.81069477      49.93803996      50.13623005
C       50.00137444      49.10184225      50.91529512
C       48.64287626      49.17830555      50.73337209
C       48.05706994      50.14264084      49.97514686
C       48.79860550      50.95582447      49.11002974
C       50.17059513      50.88255797      49.32751096
H       52.93675103      49.03648652      50.27230181
H       52.81548567      50.72888207      49.48159270
H       52.58834253      50.53083555      51.22115872
H       50.50702262      48.27479121      51.51928258
H       48.01828004      48.61972258      51.39085055
H       47.00900218      50.14711288      49.99537296
H       48.32896779      51.79546667      48.58694337
H       50.76563570      51.51853288      48.54949760
