15
Lattice="100.0 0.0 0.0 0.0 100.0 0.0 0.0 0.0 100.0" Properties=species:S:1:pos:R:3 Energy=-170029.1437051137 Energy_pyscf=-170026.9747916184 pbc="F F F" Energy_pyscf_og=-170028.92632923918
C       52.61643421      49.80170197      50.05554140
C       51.09529171      50.00062821      50.00110595
C       50.22311514      49.13075733      50.83113573
C       48.83129256      49.09376431      50.75659912
C       48.23924769      49.82694605      49.73283130
C       49.06457806      50.73314761      48.95110494
C       50.44689963      50.75784503      49.04356236
H       53.02974294      50.41979458      49.21363659
H       52.99852273      50.48091747      50.88211399
H       52.96961800      48.83568021      49.91653195
H       50.59272437      48.55917240      51.63008692
H       48.06034354      48.53503542      51.41046995
H       47.15864533      49.91019479      49.44155747
H       48.70756550      51.62506437      48.50715370
H       50.86274405      51.42635744      48.25788519
