15
Lattice="100.0 0.0 0.0 0.0 100.0 0.0 0.0 0.0 100.0" Properties=species:S:1:pos:R:3 Energy=-170041.9945012609 Energy_pyscf=-170041.8717793056 pbc="F F F" Energy_pyscf_og=-170041.77640447984
C       52.51920652      49.71630924      49.87559718
C       51.00592396      49.83896293      49.91859195
C       50.16082533      49.07732562      50.80291567
C       48.75864602      49.10648782      50.64201149
C       48.17384023      49.82583556      49.63313689
C       48.98036053      50.75688331      48.94760789
C       50.40230722      50.71390364      49.00413317
H       52.93947411      49.40844075      50.85089974
H       52.63091738      49.04274344      49.01054781
H       52.99419814      50.69080343      49.48329294
H       50.66580512      48.54646653      51.55827875
H       48.27165231      48.28656236      51.20887209
H       47.07065850      49.79518171      49.52323045
H       48.64556031      51.54561885      48.19960171
H       51.01177899      51.31825632      48.43011932
