15
Lattice="100.0 0.0 0.0 0.0 100.0 0.0 0.0 0.0 100.0" Properties=species:S:1:pos:R:3 Energy=-170030.63399286248 Energy_pyscf=-170030.48537422114 pbc="F F F" Energy_pyscf_og=-170030.42623184487
C       52.34679242      49.92476928      50.09787400
C       50.88237745      49.98469360      50.06971775
C       50.10175942      49.13780770      50.92832215
C       48.73580114      49.20906714      50.74345667
C       48.04808441      50.04955462      49.80001322
C       48.90477236      50.88567842      49.13435677
C       50.32374395      50.80537824      49.08133224
H       52.87964454      50.84028928      49.81248210
H       52.56957426      49.82032001      51.18878595
H       52.77089646      49.09018976      49.40583564
H       50.75981796      48.52665006      51.60263911
H       47.98246894      48.63984138      51.32769075
H       46.99176320      49.97673321      49.52541035
H       48.39159638      51.52520583      48.45874478
H       50.84869952      51.75517030      48.80371731
