15
Lattice="100.0 0.0 0.0 0.0 100.0 0.0 0.0 0.0 100.0" Properties=species:S:1:pos:R:3 Energy=-170032.5610315376 Energy_pyscf=-170032.3709159026 pbc="F F F" Energy_pyscf_og=-170032.33851331827
C       52.48828936      49.99587177      50.23686249
C       51.01754198      50.14293054      50.17894722
C       50.18546982      49.23724323      50.95728586
C       48.86467769      49.09449309      50.69838329
C       48.23846804      50.04380245      49.86886018
C       48.94651515      50.92285344      49.04537315
C       50.36130594      50.96562411      49.28055470
H       52.97455266      49.86679437      49.24937437
H       52.98004292      50.84916867      50.65097821
H       52.74907070      49.08843107      50.75642947
H       50.86070492      48.50885214      51.51419912
H       48.14937329      48.29661489      50.97379405
H       47.23276317      49.95953291      49.89415866
H       48.34933456      51.57589441      48.44904857
H       50.95172842      51.66601450      48.83235842
