15
Lattice="100.0 0.0 0.0 0.0 100.0 0.0 0.0 0.0 100.0" Properties=species:S:1:pos:R:3 Energy=-170030.00192629793 Energy_pyscf=-170029.35090546822 pbc="F F F" Energy_pyscf_og=-170029.7799238589
C       52.43762078      50.09227763      50.18910854
C       50.99386917      50.13804637      50.24621348
C       50.16300039      49.19319354      50.88977238
C       48.80208311      49.07090351      50.72345621
C       48.12940765      50.10113887      49.89787225
C       49.00453236      50.84919443      49.00768494
C       50.40193717      50.94000358      49.31986990
H       52.68421379      50.33394486      49.17468997
H       53.13312454      50.78600185      50.77589189
H       52.91446824      49.15434899      50.45362001
H       50.66790497      48.52062851      51.65960263
H       48.23359143      48.37966576      51.44651900
H       47.03867740      50.20160375      49.98623764
H       48.45631014      51.64339792      48.47069030
H       50.95945601      51.61197564      48.76680909
