15
Lattice="100.0 0.0 0.0 0.0 100.0 0.0 0.0 0.0 100.0" Properties=species:S:1:pos:R:3 Energy=-170046.38194908242 Energy_pyscf=-170046.55898395195 pbc="F F F" Energy_pyscf_og=-170046.15749326246
C       52.45489337      49.90473282      50.03777626
C       50.92787999      49.77939601      49.93635085
C       50.09907710      49.01901265      50.81107646
C       48.72216394      49.02497271      50.63109957
C       48.13143143      49.93051890      49.71325456
C       48.93738107      50.86471834      49.04993800
C       50.31307711      50.75957732      49.06456553
H       52.88852337      48.99611571      49.45224655
H       52.81927104      50.73135513      49.41130044
H       52.87711389      49.90251661      51.04842175
H       50.61770772      48.40439593      51.50024811
H       48.20389939      48.33039291      51.28855052
H       47.02903248      50.08175364      49.65892413
H       48.48805469      51.68348011      48.53282778
H       50.97937389      51.38272394      48.45169468
