15
Lattice="100.0 0.0 0.0 0.0 100.0 0.0 0.0 0.0 100.0" Properties=species:S:1:pos:R:3 Energy=-170045.8163964005 Energy_pyscf=-170044.7514803114 pbc="F F F" Energy_pyscf_og=-170045.57647819174
C       52.33612464      49.99152484      50.39029219
C       50.84781964      50.01462809      50.21330950
C       50.00562911      49.14998499      50.96904284
C       48.65549510      49.17839493      50.89773771
C       47.98615370      50.11215948      50.04790341
C       48.73418512      50.92126764      49.27589530
C       50.16545973      50.92895295      49.35953938
H       52.77083629      49.06203137      50.87297138
H       52.97921083      50.42312996      49.60966702
H       52.51264899      50.79493815      51.11528166
H       50.42853338      48.33118348      51.57160965
H       48.13763853      48.42626866      51.47654576
H       46.83752955      50.04792408      49.86536015
H       48.33545694      51.61925728      48.50717911
H       50.68484639      51.64883625      48.81421994
