15
Lattice="100.0 0.0 0.0 0.0 100.0 0.0 0.0 0.0 100.0" Properties=species:S:1:pos:R:3 Energy=-170032.8337519404 Energy_pyscf=-170032.9571456231 pbc="F F F" Energy_pyscf_og=-170032.6050229291
C       52.41013678      49.89882947      50.41244087
C       50.92097364      50.05492368      50.35737995
C       50.09159786      49.14995949      51.05624618
C       48.68776568      49.08457117      50.88839079
C       48.05840809      49.97896438      50.06111857
C       48.82258498      50.67234745      49.28728629
C       50.23150454      50.93020447      49.39332842
H       52.87699527      50.38323958      51.24530570
H       52.63866711      48.84660647      50.43134799
H       52.88290680      50.24327147      49.49342293
H       50.52843469      48.18795205      51.45249724
H       48.15237871      48.26813248      51.41997436
H       47.00161709      49.93416952      49.82543751
H       48.33156527      51.31558230      48.50891138
H       50.80975343      51.67550144      48.81978653
