15
Lattice="100.0 0.0 0.0 0.0 100.0 0.0 0.0 0.0 100.0" Properties=species:S:1:pos:R:3 Energy=-170034.6849109431 Energy_pyscf=-170034.39171189853 pbc="F F F" Energy_pyscf_og=-170034.4718939845
C       52.47955405      49.80170968      50.02340562
C       50.98325687      49.84187574      49.93770861
C       50.14085673      49.14947702      50.78822716
C       48.72598260      49.00027201      50.59745637
C       48.06856218      49.94037856      49.82931461
C       48.97124704      50.78661424      49.11696185
C       50.39539500      50.76360530      49.11296149
H       52.88819806      48.97309442      49.44732524
H       52.75846228      50.73067978      49.54602645
H       52.86490242      49.81064505      50.97901545
H       50.71238151      48.60174274      51.44238758
H       48.04853643      48.33901038      51.19145422
H       46.99041610      50.06278353      49.65430918
H       48.49109116      51.57552849      48.51976911
H       50.97915483      51.42783383      48.39064599
