15
Lattice="100.0 0.0 0.0 0.0 100.0 0.0 0.0 0.0 100.0" Properties=species:S:1:pos:R:3 Energy=-170043.80579598728 Energy_pyscf=-170042.92752926273 pbc="F F F" Energy_pyscf_og=-170043.5852737543
C       52.49489325      50.03298747      50.16661124
C       51.05350390      49.97574847      50.20025859
C       50.16091698      49.20693100      50.95539495
C       48.79004566      49.16682168      50.70510949
C       48.15846086      50.05956791      49.87871768
C       48.99942661      50.92270719      49.10431422
C       50.39518600      50.83784208      49.31557901
H       52.95377375      50.09539451      49.14347927
H       52.94278623      50.81240902      50.80196732
H       53.01160996      49.12209547      50.58054926
H       50.71328744      48.46387019      51.65123113
H       48.22087105      48.31214856      51.10771524
H       47.02547858      49.94915532      49.76634152
H       48.48099157      51.64000889      48.46466211
H       50.98991162      51.60102533      48.74033454
