15
Lattice="100.0 0.0 0.0 0.0 100.0 0.0 0.0 0.0 100.0" Properties=species:S:1:pos:R:3 Energy=-170036.2261309966 Energy_pyscf=-170034.063138796 pbc="F F F" Energy_pyscf_og=-170035.9993058915
C       52.49405629      50.20474041      50.31283020
C       51.03070593      49.96646966      50.22359574
C       50.19938102      49.06860194      50.84679632
C       48.73012288      49.20244741      50.93652008
C       48.13412948      50.12881800      50.08740829
C       48.92072854      50.94944475      49.24874718
C       50.28411170      50.88207907      49.31273630
H       52.78730373      51.21193736      50.71495192
H       53.01405282      49.34829927      50.85437460
H       52.89864610      50.14372796      49.34953445
H       50.60753012      48.36036579      51.52616265
H       48.07160580      48.62248164      51.52110978
H       47.08170895      50.07753155      49.70205030
H       48.39048049      51.44063484      48.38582000
H       50.97757567      51.43783958      48.62965779
