15
Lattice="100.0 0.0 0.0 0.0 100.0 0.0 0.0 0.0 100.0" Properties=species:S:1:pos:R:3 Energy=-170040.63237074963 Energy_pyscf=-170039.00574016623 pbc="F F F" Energy_pyscf_og=-170040.41759617798
C       52.42064420      49.90383860      50.15539213
C       50.97861845      50.06206113      50.20794079
C       50.21780987      49.12414441      50.92746692
C       48.76639513      49.12546534      50.84342497
C       48.13718670      50.04725851      49.86921061
C       48.86880123      50.96484998      49.12262454
C       50.32491821      50.86138658      49.23116305
H       52.86104954      50.71178319      49.49392830
H       52.83495361      50.02567974      51.20403552
H       52.95327425      48.94610912      49.79360942
H       50.73388059      48.36845850      51.57472564
H       48.17004060      48.49987324      51.47942600
H       46.95326162      50.04729959      49.84088751
H       48.42505042      51.56268241      48.34769171
H       50.85041177      51.67749611      48.71033832
