15
Lattice="100.0 0.0 0.0 0.0 100.0 0.0 0.0 0.0 100.0" Properties=species:S:1:pos:R:3 Energy=-170033.2573441549 Energy_pyscf=-170031.6255646128 pbc="F F F" Energy_pyscf_og=-170033.04399973847
C       52.57050005      50.10932289      50.13466921
C       51.06937553      49.92508566      49.95066700
C       50.33112198      49.10724168      50.75278553
C       48.92240087      49.34001029      50.74080308
C       48.23050203      50.10263585      49.82185432
C       48.94537703      50.96176678      49.05327088
C       50.32634404      50.92102026      49.12256416
H       53.19010010      50.71816864      49.47495248
H       52.80737347      50.57800495      51.10227197
H       52.94100677      49.14450486      50.38083491
H       50.73986630      48.61728072      51.63966801
H       48.34679716      48.52346845      51.30300382
H       47.17871542      50.16613853      49.61675285
H       48.53307449      51.65084956      48.30140906
H       50.96056691      51.58383000      48.56861956
