15
Lattice="100.0 0.0 0.0 0.0 100.0 0.0 0.0 0.0 100.0" Properties=species:S:1:pos:R:3 Energy=-170039.00487981574 Energy_pyscf=-170038.61621125802 pbc="F F F" Energy_pyscf_og=-170038.77813695633
C       52.54230270      50.17138628      50.21394853
C       51.04751180      50.24223617      50.22230702
C       50.33007753      49.34651577      50.98524740
C       48.88434243      49.22155316      50.72404878
C       48.21093140      50.11740165      49.87341796
C       49.03811692      51.01198342      49.11334824
C       50.42465429      51.02670011      49.30169756
H       53.06321017      50.69437644      49.41086966
H       53.02252826      50.36647540      51.21178027
H       52.94848537      49.16553759      50.28132471
H       50.94826795      48.64068049      51.54207996
H       48.40396250      48.38231306      51.32926225
H       47.09199808      50.12819149      49.71610491
H       48.58212491      51.71172038      48.36899823
H       50.92436211      51.54703410      48.54395982
