15
Lattice="100.0 0.0 0.0 0.0 100.0 0.0 0.0 0.0 100.0" Properties=species:S:1:pos:R:3 Energy=-170033.60760511152 Energy_pyscf=-170034.83483109725 pbc="F F F" Energy_pyscf_og=-170033.39497173004
C       52.34846600      49.98221795      50.40319292
C       50.85317574      50.01416215      50.13973819
C       50.05734817      49.16037674      50.91531413
C       48.65052593      49.10314448      50.79857502
C       48.05169168      50.10089947      49.93595537
C       48.76741370      50.95737839      49.14241303
C       50.19347345      50.94480979      49.15617023
H       52.97087921      49.09529725      50.28252876
H       52.74472876      50.58763449      49.51051252
H       52.59219640      50.53799879      51.25727089
H       50.52177277      48.25922651      51.40838675
H       47.98092528      48.58567429      51.39970130
H       46.94031275      50.28110020      50.05004240
H       48.27052192      51.73562836      48.58689893
H       50.85637101      51.58494606      48.49100465
