15
Lattice="100.0 0.0 0.0 0.0 100.0 0.0 0.0 0.0 100.0" Properties=species:S:1:pos:R:3 Energy=-170019.04920507685 Energy_pyscf=-170017.3524755347 pbc="F F F" Energy_pyscf_og=-170018.8386054087
C       52.36926723      49.85304213      50.25336100
C       50.90072428      49.95495971      50.16240870
C       50.13116106      49.07146440      50.82253078
C       48.70216579      49.17928277      50.85149088
C       48.04841868      50.02038659      49.99056872
C       48.75113740      50.82195805      49.20198042
C       50.14505555      50.87915417      49.33479026
H       52.64192966      49.01047237      49.55028904
H       52.95478263      50.73612585      50.03043845
H       52.61882297      49.37302682      51.23563815
H       50.58301690      48.31609456      51.54918399
H       48.00510858      48.68827548      51.51484227
H       47.11081038      49.73324176      49.48805950
H       48.25275356      51.31483931      48.31852405
H       50.43033237      51.81190815      49.04311997
