15
Lattice="100.0 0.0 0.0 0.0 100.0 0.0 0.0 0.0 100.0" Properties=species:S:1:pos:R:3 Energy=-170033.60760511152 Energy_pyscf=-170034.7919247115 pbc="F F F" Energy_pyscf_og=-170033.3949717291
C       52.34822687      49.97995074      50.39762395
C       50.85302974      50.01184785      50.13569735
C       50.05892834      49.15860446      50.91258225
C       48.65026196      49.11011750      50.81167676
C       48.05041084      50.10369723      49.94277877
C       48.76578162      50.94222077      49.13099588
C       50.19126748      50.94148243      49.15221306
H       52.97080532      49.09376412      50.27404999
H       52.74353438      50.58855196      49.50634850
H       52.59185262      50.53582562      51.25180635
H       50.52360950      48.25462565      51.40085195
H       47.98533530      48.58308685      51.40850995
H       46.93666541      50.27551620      50.03752752
H       48.26210677      51.73874922      48.60722025
H       50.85371816      51.58551048      48.48948650
