15
Lattice="100.0 0.0 0.0 0.0 100.0 0.0 0.0 0.0 100.0" Properties=species:S:1:pos:R:3 Energy=-170036.20494708815 Energy_pyscf=-170034.1361510485 pbc="F F F" Energy_pyscf_og=-170035.98383056972
C       52.51447674      50.15075125      50.15802213
C       51.03393250      50.07116032      50.10892503
C       50.25265611      49.23049591      50.89222599
C       48.86535437      49.21490452      50.66591686
C       48.16171387      50.18884757      49.87770406
C       48.96498782      51.01670206      49.19453736
C       50.40549971      50.80894718      49.13290142
H       52.89143214      50.52985416      49.18895436
H       52.87969325      50.65819423      51.04695406
H       52.92067673      49.14684861      50.41443232
H       50.74087652      48.56503501      51.57335530
H       48.27875740      48.30830939      51.04054467
H       47.17216034      50.11704685      49.51527007
H       48.66837891      51.63685040      48.36823057
H       51.04406405      51.43350387      48.52788117
