15
Lattice="100.0 0.0 0.0 0.0 100.0 0.0 0.0 0.0 100.0" Properties=species:S:1:pos:R:3 Energy=-170037.70819212132 Energy_pyscf=-170037.43308628193 pbc="F F F" Energy_pyscf_og=-170037.48915663926
C       52.56064780      50.08662423      50.20563154
C       51.08743599      49.97300722      50.07537825
C       50.17238123      49.24925903      50.79577521
C       48.80053659      49.14602082      50.59439032
C       48.16623928      50.12070063      49.84055575
C       49.02271548      50.93837959      49.10075179
C       50.42337986      50.90547682      49.20414582
H       53.09361806      50.61749606      49.26804889
H       52.98795022      50.60130809      51.14221805
H       53.09869271      49.11845738      50.28586792
H       50.59911592      48.76238115      51.64035137
H       48.23432482      48.35619676      51.05599160
H       47.05901012      50.12407794      49.69671182
H       48.51579296      51.66940444      48.34375838
H       50.99968530      51.44638866      48.43134109
