15
Lattice="100.0 0.0 0.0 0.0 100.0 0.0 0.0 0.0 100.0" Properties=species:S:1:pos:R:3 Energy=-170035.35172601297 Energy_pyscf=-170036.39192510198 pbc="F F F" Energy_pyscf_og=-170035.1346600594
C       52.51787624      50.12891944      50.14189325
C       51.04067291      49.98983300      50.04417092
C       50.29044052      49.14960294      50.83911049
C       48.85756476      49.17966752      50.70721968
C       48.24561901      50.12476333      49.81367343
C       49.00305349      51.06511272      49.14571222
C       50.35780749      50.78255359      49.06078053
H       53.02757353      50.68528466      49.31091445
H       52.70942465      50.66107442      51.02878821
H       53.02459684      49.09437410      50.31650314
H       50.61821013      48.55331078      51.66161318
H       48.29247287      48.43353938      51.13482142
H       47.18221706      50.15060859      49.58098813
H       48.52279616      51.66284529      48.38079928
H       51.11587923      51.40310928      48.52447009
