15
Lattice="100.0 0.0 0.0 0.0 100.0 0.0 0.0 0.0 100.0" Properties=species:S:1:pos:R:3 Energy=-170045.22554283778 Energy_pyscf=-170044.9558603174 pbc="F F F" Energy_pyscf_og=-170045.00425240013
C       52.55642840      49.85943896      50.05644229
C       51.03543369      49.85736196      49.94383700
C       50.25194748      49.12754883      50.80069943
C       48.83242816      49.12590496      50.71676077
C       48.25440737      49.97033252      49.71677489
C       49.00916390      50.86275852      48.98862016
C       50.39395584      50.80468990      49.14116270
H       52.99560925      50.43733209      49.16115205
H       53.01733780      50.46854033      50.89566686
H       52.96049934      48.81522769      50.13412997
H       50.63767779      48.50105935      51.57374631
H       48.27450426      48.45199859      51.41803585
H       47.22669948      50.00976650      49.49124982
H       48.55923428      51.56075185      48.29579263
H       50.93580246      51.31209884      48.31132214
