15
Lattice="100.0 0.0 0.0 0.0 100.0 0.0 0.0 0.0 100.0" Properties=species:S:1:pos:R:3 Energy=-170041.50591638603 Energy_pyscf=-170040.71950198145 pbc="F F F" Energy_pyscf_og=-170041.2940556047
C       52.38447643      49.91587308      50.44885254
C       50.92180469      49.92554221      50.19626397
C       50.14391136      49.05724955      50.91529415
C       48.71819518      49.01628796      50.89412616
C       48.04434035      49.92774834      50.02514125
C       48.89789892      50.73175189      49.27200410
C       50.26400496      50.83580119      49.34168046
H       52.81262588      50.38423094      51.31032063
H       52.78076814      48.84347372      50.47935412
H       52.83758424      50.32379242      49.54375389
H       50.57720213      48.22515407      51.40475373
H       48.11590763      48.38566046      51.56633714
H       46.93008135      50.07610009      49.83362865
H       48.30374695      51.30349185      48.52211708
H       50.74066191      51.65920941      48.88916220
