15
Lattice="100.0 0.0 0.0 0.0 100.0 0.0 0.0 0.0 100.0" Properties=species:S:1:pos:R:3 Energy=-170038.1720841495 Energy_pyscf=-170037.94822537867 pbc="F F F" Energy_pyscf_og=-170037.96291145365
C       52.38036331      49.88595739      50.41557228
C       50.89888132      49.88512226      50.19095832
C       50.06456929      48.98002113      50.90955775
C       48.69101376      49.03827023      50.90286477
C       48.05314209      49.93861420      49.97455909
C       48.86551749      50.73656591      49.24814611
C       50.28121484      50.79427579      49.36938173
H       52.72678851      50.36846358      51.33180944
H       52.73747352      48.88297018      50.30711020
H       52.80849744      50.36164308      49.55286827
H       50.68965360      48.32434268      51.50130760
H       48.13277290      48.40904788      51.59072781
H       46.97086936      50.18542436      49.90139917
H       48.36129263      51.13229946      48.39002955
H       50.78739671      51.71932871      49.07935638
