15
Lattice="100.0 0.0 0.0 0.0 100.0 0.0 0.0 0.0 100.0" Properties=species:S:1:pos:R:3 Energy=-170041.9100368849 Energy_pyscf=-170041.5402261628 pbc="F F F" Energy_pyscf_og=-170041.68693446353
C       52.50821493      49.91519540      50.18022173
C       51.01812397      49.94803775      50.14305029
C       50.18551054      49.11074607      50.99284117
C       48.84005668      49.15855418      50.85842992
C       48.23962059      49.93393801      49.79984605
C       49.01300313      50.90830005      49.20156633
C       50.39684372      51.02318353      49.42623959
H       52.98395974      49.79666058      49.19503234
H       52.94789086      50.72998807      50.68372422
H       52.94562453      49.03078852      50.77589614
H       50.78042539      48.32883693      51.59468130
H       48.21571649      48.54868480      51.54131775
H       47.10315291      49.87475477      49.66911255
H       48.58969753      51.49591125      48.34319683
H       50.95518149      51.70494333      48.78521456
