15
Lattice="100.0 0.0 0.0 0.0 100.0 0.0 0.0 0.0 100.0" Properties=species:S:1:pos:R:3 Energy=-170037.55057522035 Energy_pyscf=-170037.6405467618 pbc="F F F" Energy_pyscf_og=-170037.33749457652
C       52.33573252      49.89017662      50.40405695
C       50.89346742      50.00474586      50.25371113
C       50.03807674      49.04743599      50.95317103
C       48.69747439      48.97705935      50.85422663
C       48.05303510      49.97708415      50.09300382
C       48.90128535      50.85381852      49.29060766
C       50.32960078      50.90078915      49.33502741
H       52.77484011      50.39061204      51.36344566
H       52.73728257      48.84437445      50.54595707
H       52.85512438      50.32209616      49.47661022
H       50.58759534      48.19267215      51.37957711
H       48.14270982      48.32892748      51.57130314
H       46.95411201      49.92467897      49.89000544
H       48.35432973      51.33983856      48.53462493
H       50.80173632      51.61729439      48.73116532
