15
Lattice="100.0 0.0 0.0 0.0 100.0 0.0 0.0 0.0 100.0" Properties=species:S:1:pos:R:3 Energy=-170041.4211576598 Energy_pyscf=-170042.17868855136 pbc="F F F" Energy_pyscf_og=-170041.1997037696
C       52.61030405      49.86286321      50.01818583
C       51.08128287      49.91277235      49.89437220
C       50.24655977      49.19143091      50.83650541
C       48.84585420      49.18344402      50.70363556
C       48.15282561      49.96050204      49.75023421
C       49.01484748      50.81552488      49.03765289
C       50.37678502      50.80118105      49.11662925
H       53.06684965      50.25625966      49.09897733
H       52.87432215      50.55336086      50.82528737
H       53.05597894      48.86209980      50.19095533
H       50.59298023      48.37858078      51.59232930
H       48.26879226      48.44946422      51.40763066
H       47.14335058      49.97702674      49.48517830
H       48.60127692      51.50673589      48.30594152
H       51.04591224      51.46693735      48.44941951
