15
Lattice="100.0 0.0 0.0 0.0 100.0 0.0 0.0 0.0 100.0" Properties=species:S:1:pos:R:3 Energy=-170042.48377150286 Energy_pyscf=-170042.52507596536 pbc="F F F" Energy_pyscf_og=-170042.26365115045
C       52.30618503      49.88302282      50.05807555
C       50.85272872      49.94285263      49.94453072
C       50.03520761      49.11806347      50.75060248
C       48.68484394      49.08174844      50.55617648
C       48.06062544      49.99146542      49.78005567
C       48.87279776      50.79535491      49.00822479
C       50.25196925      50.72541708      49.03644792
H       52.67940723      50.93787695      50.07162395
H       52.61829470      49.47759366      50.99011571
H       52.87664672      49.51111890      49.19161188
H       50.46998666      48.55415529      51.55275000
H       48.01604534      48.47556696      51.21896901
H       47.01400363      50.05951938      49.60634508
H       48.36604357      51.57355558      48.36767553
H       50.85944856      51.41151467      48.47052985
