15
Lattice="100.0 0.0 0.0 0.0 100.0 0.0 0.0 0.0 100.0" Properties=species:S:1:pos:R:3 Energy=-170047.57365603073 Energy_pyscf=-170047.4191699887 pbc="F F F" Energy_pyscf_og=-170047.351326792
C       52.44808314      49.84119415      49.99510755
C       50.94110617      49.87340570      49.90091854
C       50.15558808      49.06506702      50.69857004
C       48.75505282      49.00534602      50.62850520
C       48.14953285      49.91466344      49.79772821
C       48.93878265      50.83370658      49.00941081
C       50.28267281      50.79167522      49.09185209
H       52.93941733      48.89198442      49.61619928
H       52.89607043      50.66504571      49.42336999
H       52.84683423      49.90603116      51.00271527
H       50.64873567      48.50076071      51.46175748
H       48.09478805      48.35766394      51.22298747
H       47.10537373      50.04722277      49.67171309
H       48.43389705      51.66859254      48.58445865
H       50.86904831      51.45822629      48.48550065
