15
Lattice="100.0 0.0 0.0 0.0 100.0 0.0 0.0 0.0 100.0" Properties=species:S:1:pos:R:3 Energy=-170040.90296642735 Energy_pyscf=-170040.2046416859 pbc="F F F" Energy_pyscf_og=-170040.68833336842
C       52.31425032      50.05562167      50.31216535
C       50.86336544      49.93976052      50.11599817
C       50.09465683      49.07959689      50.87806407
C       48.66067029      49.13311963      50.75605578
C       48.02636735      50.17734115      49.96881560
C       48.83365626      51.01786017      49.20435475
C       50.25757564      50.87984003      49.20273005
H       52.83656113      49.09062190      50.42405688
H       52.67417288      50.39899412      49.35052534
H       52.46865921      50.71021323      51.17089153
H       50.60036494      48.24800938      51.46496422
H       47.98084333      48.59553480      51.33149622
H       47.00765299      50.20834073      50.06063747
H       48.27900362      51.70240790      48.54504889
H       50.84486749      51.68533940      48.69145416
