15
Lattice="100.0 0.0 0.0 0.0 100.0 0.0 0.0 0.0 100.0" Properties=species:S:1:pos:R:3 Energy=-170030.3312105528 Energy_pyscf=-170029.6507119829 pbc="F F F" Energy_pyscf_og=-170030.10532399165
C       52.31734656      49.76565590      50.18829593
C       50.80850563      49.99996506      50.15673625
C       49.96893504      49.12426169      50.85328853
C       48.53951126      49.08997345      50.72901866
C       47.90646963      49.81302552      49.77517449
C       48.63577402      50.84773754      49.10038109
C       50.09964975      50.91191748      49.20872423
H       53.14707111      50.45892516      50.28362664
H       52.33644915      49.11676110      51.10289006
H       52.53105480      49.02481139      49.43707216
H       50.51565848      48.46557852      51.69582113
H       48.01490513      48.31568925      51.20313547
H       46.86062219      49.67015385      49.45902944
H       48.05182271      51.36875025      48.28325960
H       50.83184968      51.59286906      48.68089008
