15
Lattice="100.0 0.0 0.0 0.0 100.0 0.0 0.0 0.0 100.0" Properties=species:S:1:pos:R:3 Energy=-170037.7255087968 Energy_pyscf=-170037.90809513463 pbc="F F F" Energy_pyscf_og=-170037.51086664552
C       52.37869730      49.89709498      50.23740253
C       50.83799703      49.94226647      50.15207587
C       50.01304023      49.11873027      50.89920338
C       48.56855388      49.07081888      50.91387911
C       48.06508211      49.95155394      49.97565389
C       48.77187260      50.90432270      49.22747522
C       50.15267300      50.87423481      49.31214191
H       52.70041861      48.87752452      50.30061288
H       52.86166166      50.34548357      49.41181650
H       52.90011397      50.48482247      50.98389733
H       50.38529779      48.20984127      51.31082330
H       48.02371934      48.43495783      51.59891984
H       46.96199250      49.96914882      49.88407434
H       48.28970594      51.53801479      48.51330391
H       50.68824765      51.65935881      48.76222460
