15
Lattice="100.0 0.0 0.0 0.0 100.0 0.0 0.0 0.0 100.0" Properties=species:S:1:pos:R:3 Energy=-170033.3971164215 Energy_pyscf=-170032.6127233251 pbc="F F F" Energy_pyscf_og=-170033.18210238926
C       52.34333131      49.99494306      50.13008462
C       50.86040628      49.92350246      49.94914343
C       50.09827454      49.17937213      50.76397288
C       48.72821273      49.18934346      50.73088911
C       48.13377488      49.98060832      49.86155814
C       48.88609694      50.88138969      49.05341686
C       50.28875368      50.88252806      49.11036412
H       52.75699132      48.97161326      50.38990400
H       52.97022942      50.58286090      49.42591022
H       52.67759854      50.58591935      50.98522736
H       50.58433414      48.38612669      51.37867290
H       48.11507604      48.55685131      51.34108900
H       47.03440105      50.02489719      49.51017944
H       48.36075887      51.61367424      48.45044811
H       50.89174995      51.55063455      48.65158091
