15
Lattice="100.0 0.0 0.0 0.0 100.0 0.0 0.0 0.0 100.0" Properties=species:S:1:pos:R:3 Energy=-170035.78293817793 Energy_pyscf=-170034.9668995673 pbc="F F F" Energy_pyscf_og=-170035.56506436993
C       52.38388606      49.88954822      50.27089043
C       50.79315611      50.00194890      50.18472396
C       50.05949312      49.03963874      50.79688717
C       48.65974472      49.09641234      50.75936198
C       48.03036144      49.95059225      49.92049361
C       48.86708847      50.83814385      49.16105549
C       50.24346221      50.85944373      49.21126853
H       52.80630042      49.09654437      49.61685759
H       52.91834172      50.82133131      50.12748494
H       52.49723114      49.54182467      51.27145326
H       50.33299071      48.32704171      51.55170332
H       48.11253170      48.35921223      51.45732451
H       46.97670104      49.89966458      49.89790274
H       48.17145319      51.43868526      48.51526213
H       50.76752886      51.63737881      48.63176430
