15
Lattice="100.0 0.0 0.0 0.0 100.0 0.0 0.0 0.0 100.0" Properties=species:S:1:pos:R:3 Energy=-170039.6317643763 Energy_pyscf=-170038.98923485624 pbc="F F F" Energy_pyscf_og=-170039.41236466775
C       52.54329755      49.87561272      50.06707150
C       51.08752810      49.84234030      49.91657422
C       50.25156105      49.13129317      50.79760938
C       48.85048134      49.14496446      50.68424606
C       48.17518060      49.98483635      49.73449080
C       48.98629615      50.83351647      49.07699065
C       50.39784721      50.79259137      49.08732913
H       53.03600588      50.28874280      49.14025109
H       52.90548644      50.63065086      50.86851797
H       52.99849787      48.74833965      50.18474444
H       50.79223087      48.37072594      51.50368625
H       48.19708751      48.58839651      51.42252417
H       47.16322411      49.95288973      49.44061799
H       48.60231742      51.53789527      48.32674015
H       50.95215899      51.43417295      48.35636459
