15
Lattice="100.0 0.0 0.0 0.0 100.0 0.0 0.0 0.0 100.0" Properties=species:S:1:pos:R:3 Energy=-170038.52039912954 Energy_pyscf=-170037.58677307583 pbc="F F F" Energy_pyscf_og=-170038.30205036784
C       52.49275012      50.15869738      50.33459407
C       50.98520699      50.01210183      50.24796986
C       50.20061070      49.02525668      50.88832129
C       48.80174201      49.16615557      50.88973220
C       48.14973096      50.08635623      49.97075430
C       48.92642947      50.93213758      49.17868014
C       50.32738322      50.90768165      49.25768151
H       52.70214819      51.16313779      50.63014529
H       52.81888619      49.40527865      50.99368057
H       52.73351011      50.03507844      49.25842885
H       50.65618542      48.31964136      51.58587752
H       48.21978760      48.56384702      51.65750262
H       47.06996254      50.02859791      49.75697418
H       48.59398255      51.60750242      48.41405148
H       50.98588970      51.64303266      48.59899299
