15
Lattice="100.0 0.0 0.0 0.0 100.0 0.0 0.0 0.0 100.0" Properties=species:S:1:pos:R:3 Energy=-170044.62082576784 Energy_pyscf=-170044.55621836067 pbc="F F F" Energy_pyscf_og=-170044.40293571944
C       52.49011506      49.90238168      50.31883230
C       50.93686349      49.93233212      50.13866293
C       50.14935939      49.06123180      50.94676236
C       48.75676278      49.07349488      50.84738225
C       48.10010438      49.96643237      49.98253033
C       48.89156374      50.85236765      49.18389541
C       50.34427350      50.94104467      49.31288747
H       53.04991673      49.23084044      49.61727538
H       53.05585464      50.89342738      50.42986400
H       52.72664606      49.38397568      51.29007162
H       50.64447189      48.34985344      51.56429838
H       48.20255702      48.50651409      51.64119298
H       47.03497499      49.91476926      49.78302331
H       48.32109528      51.46067662      48.44991879
H       51.00141328      51.52084298      48.55830959
