15
Lattice="100.0 0.0 0.0 0.0 100.0 0.0 0.0 0.0 100.0" Properties=species:S:1:pos:R:3 Energy=-170036.94378163494 Energy_pyscf=-170033.95884702815 pbc="F F F" Energy_pyscf_og=-170036.72068940627
C       52.41941922      50.09800949      50.36205874
C       51.03271503      49.96340102      50.08485305
C       50.22867834      49.15926646      50.95863075
C       48.78176484      49.23593582      50.87545293
C       48.11897075      50.06178513      49.96186865
C       48.92865023      50.95974076      49.20346431
C       50.32762735      50.84239808      49.28419133
H       52.65223402      51.00112841      50.77626354
H       53.04515195      49.39493502      50.94068850
H       52.93233902      50.10751758      49.34046232
H       50.67129496      48.38080550      51.51009170
H       48.24332324      48.72259200      51.59745062
H       47.04484997      50.01978930      49.70769217
H       48.41363746      51.57197972      48.45479947
H       50.83382734      51.52415915      48.59203372
