15
Lattice="100.0 0.0 0.0 0.0 100.0 0.0 0.0 0.0 100.0" Properties=species:S:1:pos:R:3 Energy=-170037.28103180073 Energy_pyscf=-170038.29469726305 pbc="F F F" Energy_pyscf_og=-170037.06823420132
C       52.51545742      50.03809652      50.27996213
C       51.02021089      50.02666985      50.11094367
C       50.29771744      49.09358183      50.77899990
C       48.94431638      49.06002464      50.65441822
C       48.27530649      50.12504163      49.95301807
C       48.91876162      50.96793864      49.11834125
C       50.32971082      50.91148147      49.18596832
H       52.87513787      49.85966145      49.27036556
H       52.78486677      50.96794800      50.77601256
H       52.88761629      49.08290326      50.81633441
H       50.78890184      48.37486909      51.50568456
H       48.24371313      48.40340778      51.13410949
H       47.19962980      50.06486205      49.84272926
H       48.32201205      51.65957257      48.43784700
H       50.92774039      51.64030721      48.69873475
