15
Lattice="100.0 0.0 0.0 0.0 100.0 0.0 0.0 0.0 100.0" Properties=species:S:1:pos:R:3 Energy=-170042.43592185475 Energy_pyscf=-170042.38002680815 pbc="F F F" Energy_pyscf_og=-170042.21212733426
C       52.55218095      49.99252431      50.17535918
C       51.03341227      49.96887813      50.12192244
C       50.23441824      49.15455537      50.94084273
C       48.84903662      49.15878307      50.75665369
C       48.21183731      50.09011418      49.88460066
C       48.98265473      50.99217141      49.12898472
C       50.34614392      50.88266811      49.26289499
H       52.97200341      50.11429009      49.17667643
H       52.69300345      50.81689928      50.91878176
H       52.94765260      49.05346693      50.53038025
H       50.71847664      48.38089330      51.74705243
H       48.26094868      48.32378081      51.13516013
H       47.11942978      50.02404881      49.73682020
H       48.43013017      51.62751109      48.46492053
H       50.99370621      51.64034452      48.61491670
