15
Lattice="100.0 0.0 0.0 0.0 100.0 0.0 0.0 0.0 100.0" Properties=species:S:1:pos:R:3 Energy=-170027.52628373084 Energy_pyscf=-170024.26383613792 pbc="F F F" Energy_pyscf_og=-170027.29561204277
C       52.39879782      49.86924785      50.19491594
C       50.89697414      49.86834803      49.88912787
C       50.08687040      49.03679980      50.61630193
C       48.64205892      48.95924170      50.59392355
C       48.04133028      49.98285406      49.81202427
C       48.75595056      50.72773768      49.00291738
C       50.32038091      50.70947130      49.02376261
H       52.67806760      49.29324258      51.12269264
H       52.93014484      49.31340577      49.40559341
H       52.84878359      50.87938664      50.27564657
H       50.50710924      48.42466539      51.52394174
H       48.00369883      48.25615915      51.13487718
H       47.01369107      50.10198615      49.82799514
H       48.33964579      51.66782524      48.52218910
H       50.74879711      51.65095229      48.50573554
