15
Lattice="100.0 0.0 0.0 0.0 100.0 0.0 0.0 0.0 100.0" Properties=species:S:1:pos:R:3 Energy=-170036.84941018396 Energy_pyscf=-170036.30950817978 pbc="F F F" Energy_pyscf_og=-170036.62754831137
C       52.58882505      49.87854846      50.05648274
C       51.07435442      49.90873227      49.98046458
C       50.25496273      49.09230638      50.74370217
C       48.92190072      49.18861476      50.73374480
C       48.23847014      49.87440495      49.72047238
C       48.94953773      50.78654784      49.03007781
C       50.34618635      50.85449978      49.14221898
H       52.97183414      50.27008182      49.13057749
H       53.11164494      50.49964704      50.84896547
H       52.82782234      48.83674052      50.34792792
H       50.67723914      48.38365193      51.47919853
H       48.25555348      48.59853264      51.37964011
H       47.22101306      49.77740481      49.60688918
H       48.61278003      51.61797675      48.37946107
H       50.96646497      51.40366855      48.38794176
