15
Lattice="100.0 0.0 0.0 0.0 100.0 0.0 0.0 0.0 100.0" Properties=species:S:1:pos:R:3 Energy=-170046.9160948606 Energy_pyscf=-170045.51097139265 pbc="F F F" Energy_pyscf_og=-170046.6932342557
C       52.62033564      49.85203705      50.06834719
C       51.09236960      49.96170652      50.00108281
C       50.23977040      49.07714009      50.74643927
C       48.85611475      49.10881055      50.65084382
C       48.17481066      49.90293914      49.70826335
C       49.01932857      50.90451092      49.09403377
C       50.42577853      50.84166757      49.19380540
H       53.00789200      50.20609420      49.10963574
H       53.04283799      50.57606432      50.80073076
H       52.96733064      48.81659745      50.25118110
H       50.64546412      48.42605433      51.57326959
H       48.34381858      48.57512297      51.42320275
H       47.09661950      49.84231254      49.54733530
H       48.53647231      51.49297702      48.33994195
H       51.01541351      51.38578683      48.46427513
