15
Lattice="100.0 0.0 0.0 0.0 100.0 0.0 0.0 0.0 100.0" Properties=species:S:1:pos:R:3 Energy=-170041.74301695588 Energy_pyscf=-170041.03301153248 pbc="F F F" Energy_pyscf_og=-170041.5187940417
C       52.52003075      50.12927993      50.19725486
C       51.02677366      49.96834260      50.15251528
C       50.18781291      49.10967577      50.88713487
C       48.81788760      49.31215570      50.83961462
C       48.18396155      50.09841170      49.90616767
C       48.98420207      50.99282539      49.15066676
C       50.36603763      50.94303356      49.33099289
H       52.61955975      50.86854063      49.44275505
H       52.86958283      50.64271797      51.09573678
H       53.07357375      49.23306436      49.86584931
H       50.61665564      48.30184225      51.62477808
H       48.11576257      48.73247564      51.46968302
H       47.12257934      50.27580889      50.05046041
H       48.60604481      51.71653913      48.46242270
H       51.07989551      51.59385161      48.75851819
