18
Lattice="100.0 0.0 0.0 0.0 100.0 0.0 0.0 0.0 100.0" Properties=species:S:1:pos:R:3 Energy=-241613.5625 Energy_pyscf=-241607.56083388382 Energy_nn=-241615.140625 pbc="F F F"
C       48.82542514      48.49193306      50.29216296
C       47.63643217      49.17051079      50.03319093
C       47.52499258      50.55673420      49.65003790
C       48.65878380      51.26466288      49.71571995
C       49.93306126      50.66630880      49.97753039
C       51.02843017      51.51773625      49.76604331
C       52.21913263      50.95522550      50.08660056
C       52.45483618      49.57018492      50.14002181
C       51.42499255      48.69160379      50.46659473
C       50.13128183      49.30589248      50.41402128
H       48.97813602      47.35098965      50.28683370
H       46.70452792      48.68862172      49.76962338
H       46.58646204      51.13229474      49.72683624
H       48.59899508      52.44541851      49.86312608
H       50.94546417      52.56847057      49.95135508
H       53.20060554      51.61542515      49.95923945
H       53.41471326      49.30547777      49.84603146
H       51.64700740      47.65045832      50.22750378
