18
Lattice="100.0 0.0 0.0 0.0 100.0 0.0 0.0 0.0 100.0" Properties=species:S:1:pos:R:3 Energy=-241644.703125 Energy_pyscf=-241645.6035041802 pbc="F F F"
C       48.92073645      48.38301803      50.18572376
C       47.62723080      48.91167041      49.88435712
C       47.49633372      50.26394014      49.69100532
C       48.65725716      51.13672996      49.65910662
C       49.99745011      50.61856164      49.74238728
C       51.21225217      51.44862673      49.74564419
C       52.40195280      50.86203764      49.97409104
C       52.49298313      49.41061262      50.07911655
C       51.36783477      48.56528843      50.02291782
C       50.06252551      49.14838976      49.99726586
H       49.05336144      47.25887403      50.45095576
H       46.67972469      48.28817066      49.88787120
H       46.46863219      50.68624450      49.61086748
H       48.44788229      52.21559577      49.67349331
H       51.06855341      52.55820942      49.64275504
H       53.33371939      51.47768004      50.15242483
H       53.54203246      48.90904966      50.27159494
H       51.38196823      47.53751586      50.23540095
