18
Lattice="100.0 0.0 0.0 0.0 100.0 0.0 0.0 0.0 100.0" Properties=species:S:1:pos:R:3 Energy=-241646.25 Energy_pyscf=-241645.43374959435 Energy_nn=-241646.15625 pbc="F F F"
C       48.88810936      48.48542620      50.14935238
C       47.63038870      49.11624418      50.19007262
C       47.50219457      50.45672208      49.85979661
C       48.62361114      51.34116846      49.54617948
C       49.90273707      50.78083197      49.77450089
C       51.09298770      51.55729684      49.88971780
C       52.32655530      51.03880043      50.10436067
C       52.47662286      49.56888052      50.21186804
C       51.31878643      48.78422934      50.04991386
C       50.01275286      49.34592334      49.97720316
H       49.13139322      47.41942398      50.41344547
H       46.73343146      48.51983275      50.39062086
H       46.54307372      50.85450313      49.82225890
H       48.52583471      52.41322671      49.53555878
H       50.84955682      52.58686819      49.65150446
H       53.21439664      51.71674185      50.17800263
H       53.47214191      49.02480601      50.25798957
H       51.53249983      47.72263724      50.13081273
