18
Lattice="100.0 0.0 0.0 0.0 100.0 0.0 0.0 0.0 100.0" Properties=species:S:1:pos:R:3 Energy=-241650.90625 Energy_pyscf=-241648.5269389699 Energy_nn=-241650.0 pbc="F F F"
C       49.03318409      48.50609748      50.08281884
C       47.72740092      49.02413860      49.97825246
C       47.56770482      50.48956689      49.86149650
C       48.70291130      51.28380446      49.78207254
C       50.05963982      50.77900405      49.93744691
C       51.26161998      51.54924518      49.79220618
C       52.56464087      50.88809729      49.96374269
C       52.65309039      49.53423418      50.20526647
C       51.47968923      48.78310495      50.28806589
C       50.17209595      49.35414812      50.04330032
H       49.12805334      47.39121683      50.13257642
H       46.76753575      48.44640274      50.14199031
H       46.55172028      50.90879317      49.67711927
H       48.69816108      52.40829398      49.74639203
H       51.13314609      52.59973419      49.45899258
H       53.43544382      51.49920000      49.68433918
H       53.64247612      49.04664980      50.25681018
H       51.63322854      47.77202206      50.49125523
