18
Lattice="100.0 0.0 0.0 0.0 100.0 0.0 0.0 0.0 100.0" Properties=species:S:1:pos:R:3 Energy=-241615.796875 Energy_pyscf=-241605.17531228243 Energy_nn=-241617.390625 pbc="F F F"
C       48.91709537      48.55242540      50.19192646
C       47.57566135      49.09577422      50.02919656
C       47.52563065      50.53407505      49.93243911
C       48.53642921      51.26419016      49.71397109
C       49.93305982      50.80213099      50.11779467
C       51.02839025      51.52695200      49.94302332
C       52.30699460      50.99993427      49.93258657
C       52.45579018      49.66900512      50.29045649
C       51.32668217      48.77788406      50.34072042
C       50.04292411      49.33928137      50.30440651
H       48.98986803      47.32915343      50.30028023
H       46.72992803      48.39995033      49.91723428
H       46.60653651      50.97598623      49.73936630
H       48.54017671      52.28367163      49.54320102
H       50.90777752      52.61372088      49.88939548
H       53.35500375      51.28728885      49.68790500
H       53.42151022      49.27404055      50.30261893
H       51.69765404      47.71843174      50.44325607
