18
Lattice="100.0 0.0 0.0 0.0 100.0 0.0 0.0 0.0 100.0" Properties=species:S:1:pos:R:3 Energy=-241609.859375 Energy_pyscf=-241596.79658378637 Energy_nn=-241612.890625 pbc="F F F"
C       48.92671789      48.49286585      50.01940397
C       47.74311387      49.07894213      50.12698098
C       47.64596817      50.49408807      49.89117654
C       48.80447468      51.17390436      49.62118104
C       50.07718020      50.63911910      49.61150137
C       51.13374209      51.51725467      49.51664433
C       52.26225822      50.94278811      50.08847818
C       52.54056292      49.56498459      50.20883358
C       51.57601752      48.66021404      50.10294860
C       50.25885912      49.26765361      50.07279541
H       49.06258406      47.38195841      50.15564918
H       46.75248107      48.90598794      50.64633028
H       46.71536474      51.11206091      50.03122950
H       48.82235626      52.33625277      49.58791245
H       50.96504496      52.52100160      49.48977387
H       53.11577942      51.54073076      50.51839501
H       53.46164857      49.09944494      50.09575473
H       51.64893950      47.56976916      50.18104357
