18
Lattice="100.0 0.0 0.0 0.0 100.0 0.0 0.0 0.0 100.0" Properties=species:S:1:pos:R:3 Energy=-241648.078125 Energy_pyscf=-241648.62898687276 pbc="F F F"
C       48.84902982      48.51610078      50.17496857
C       47.63049775      49.08296235      50.09577850
C       47.52159296      50.48673980      49.85117532
C       48.62767200      51.36792973      49.76963134
C       49.91203578      50.77112524      50.03381870
C       51.06224796      51.50938242      49.89427896
C       52.32876324      50.94635461      50.01583609
C       52.53044411      49.57443213      50.26172818
C       51.39486473      48.78383540      50.31555650
C       50.04975226      49.31133661      50.17765817
H       49.01065079      47.40092421      50.31188845
H       46.77248975      48.36923986      50.00574939
H       46.48825805      50.97148786      49.73385813
H       48.43494051      52.41106284      49.56249871
H       50.97622270      52.59052914      49.84132988
H       53.18396649      51.45347713      49.80439268
H       53.55697560      49.19324025      50.29346606
H       51.53008754      47.71605967      50.47232114
