18
Lattice="100.0 0.0 0.0 0.0 100.0 0.0 0.0 0.0 100.0" Properties=species:S:1:pos:R:3 Energy=-241652.15625 Energy_pyscf=-241649.49100030694 Energy_nn=-241650.671875 pbc="F F F"
C       48.87433629      48.50038809      50.12429660
C       47.61730758      49.04071188      50.08218853
C       47.54409795      50.46052004      49.89036253
C       48.66779664      51.26723021      49.60384559
C       49.94113304      50.75042176      49.80737465
C       51.03386883      51.52098951      49.82075098
C       52.33785226      51.02925490      50.04781658
C       52.45159463      49.60181493      50.15889532
C       51.38347647      48.81097944      50.11095738
C       50.01719035      49.32086558      50.01108033
H       49.02441220      47.43097653      50.33555332
H       46.73125546      48.50427805      50.43343851
H       46.50314538      50.90373076      49.87924414
H       48.57433348      52.35628477      49.49390498
H       50.92710122      52.61413778      49.65457706
H       53.20779478      51.70943096      50.19570553
H       53.46934847      49.16538399      50.24971285
H       51.45516959      47.70257253      50.19884520
