18
Lattice="100.0 0.0 0.0 0.0 100.0 0.0 0.0 0.0 100.0" Properties=species:S:1:pos:R:3 Energy=-241626.296875 Energy_pyscf=-241625.31752172436 Energy_nn=-241627.171875 pbc="F F F"
C       48.96423864      48.48852509      50.11094527
C       47.64475859      49.01773934      50.07123427
C       47.54220260      50.45392479      50.02797376
C       48.69515128      51.17173012      49.89937969
C       49.99966399      50.65062226      49.79597824
C       51.16804756      51.50774804      49.59399846
C       52.36654359      50.94084566      50.10863235
C       52.47092711      49.59088373      50.51706818
C       51.32628212      48.70437464      50.25492877
C       50.05161645      49.26235880      49.86568608
H       49.20408906      47.44550009      50.29218193
H       46.80520103      48.40481228      50.37226612
H       46.55359629      50.93959290      50.16135895
H       48.61562463      52.26376849      49.88498395
H       51.14768453      52.47185390      49.29381600
H       53.18591587      51.57716351      50.29492288
H       53.25767302      48.94524060      50.83818336
H       51.29107373      47.69759139      50.70234922
