18
Lattice="100.0 0.0 0.0 0.0 100.0 0.0 0.0 0.0 100.0" Properties=species:S:1:pos:R:3 Energy=-241616.421875 Energy_pyscf=-241619.89224382743 Energy_nn=-241615.921875 pbc="F F F"
C       48.81634783      48.54823694      50.43773109
C       47.54466198      49.06894952      50.12078335
C       47.45180308      50.54053780      49.84171252
C       48.61286004      51.27734644      49.97328550
C       49.92840898      50.83611857      50.28704863
C       51.16995564      51.58675948      50.06546392
C       52.40718258      51.00693666      50.00674085
C       52.55228002      49.68570371      50.19887948
C       51.43669677      48.78960499      50.40216652
C       50.07290944      49.35888902      50.51042547
H       48.69848987      47.42952681      50.64260702
H       46.51440906      48.59182814      50.01339487
H       46.46310237      50.99646751      49.32837934
H       48.66449841      52.35789194      49.76697901
H       51.06332523      52.61006946      49.58443244
H       53.02073210      51.78344319      49.54133233
H       53.53219057      49.22743216      49.98677280
H       51.54568162      47.72513019      50.75845647
