18
Lattice="100.0 0.0 0.0 0.0 100.0 0.0 0.0 0.0 100.0" Properties=species:S:1:pos:R:3 Energy=-241657.46875 Energy_pyscf=-241651.66796312275 Energy_nn=-241652.734375 pbc="F F F"
C       48.86500685      48.46797706      50.18040188
C       47.62645637      49.07218975      50.11855992
C       47.50355950      50.50210455      49.85469472
C       48.67066175      51.26303432      49.68392570
C       49.91608071      50.69690021      49.80609509
C       51.02370535      51.53290216      49.86217911
C       52.33894457      51.01129059      50.02922200
C       52.49580714      49.61513060      50.17955083
C       51.39494237      48.81007747      50.06283654
C       50.03178391      49.32126738      50.02596703
H       49.02668301      47.41717914      50.36956765
H       46.64238623      48.56305096      50.37426197
H       46.53086506      50.92849449      49.76223577
H       48.53969016      52.33056992      49.57614569
H       50.87753065      52.59022774      49.64017954
H       53.18620287      51.74577266      50.17841366
H       53.51313448      49.14249543      50.21861425
H       51.53869116      47.70577996      50.23337963
