18
Lattice="100.0 0.0 0.0 0.0 100.0 0.0 0.0 0.0 100.0" Properties=species:S:1:pos:R:3 Energy=-241611.53125 Energy_pyscf=-241608.9378337695 Energy_nn=-241615.125 pbc="F F F"
C       48.81310411      48.54275383      49.91459855
C       47.60614139      49.02795938      50.06618092
C       47.54648062      50.45269248      49.92425149
C       48.59451896      51.18783168      49.43291311
C       49.88304935      50.72571033      49.37108910
C       50.98509251      51.55741260      49.61636117
C       52.20165799      51.01771214      50.07456233
C       52.35831344      49.66467724      50.15503425
C       51.32543768      48.70165130      50.06199004
C       50.01751735      49.32476108      49.67706072
H       48.78813729      47.40665022      49.90197034
H       46.66129794      48.59164622      50.28061365
H       46.54009742      50.90493646      49.92252057
H       48.33316115      52.35248182      49.46602492
H       50.88921364      52.52677649      49.39937775
H       53.06966499      51.52685618      49.97674719
H       53.21761514      49.25455762      50.65660376
H       51.35323619      47.58856339      50.37385930
