18
Lattice="100.0 0.0 0.0 0.0 100.0 0.0 0.0 0.0 100.0" Properties=species:S:1:pos:R:3 Energy=-241644.46875 Energy_pyscf=-241646.84621892453 pbc="F F F"
C       48.83906100      48.52050597      50.14862160
C       47.62595465      49.06980292      49.87622720
C       47.46757994      50.49771981      49.71140299
C       48.65162431      51.22966303      49.67416606
C       49.93098895      50.67857269      49.79411145
C       51.08254122      51.51981419      49.84134663
C       52.32004315      50.97035811      49.93371874
C       52.44797626      49.55847443      49.94920581
C       51.35617922      48.71358323      50.05978729
C       50.08452257      49.25748210      50.00316355
H       48.79865330      47.41912991      50.27661189
H       46.72090060      48.45513448      49.95934242
H       46.57463119      51.06358344      49.64493511
H       48.45340350      52.26756012      49.60179558
H       50.86067190      52.51582239      49.75448076
H       53.32691814      51.55304088      49.91545554
H       53.42562827      48.99455581      49.92802125
H       51.55900655      47.60693855      50.13900126
