18
Lattice="100.0 0.0 0.0 0.0 100.0 0.0 0.0 0.0 100.0" Properties=species:S:1:pos:R:3 Energy=-241649.1875 Energy_pyscf=-241649.069969706 Energy_nn=-241648.609375 pbc="F F F"
C       48.87370141      48.48121615      50.13342901
C       47.66157106      49.12022082      50.10221930
C       47.56095099      50.48153378      49.81141120
C       48.67265881      51.26318555      49.69769582
C       49.91107675      50.69214309      49.84987825
C       51.03793745      51.51832691      49.85511697
C       52.32963325      51.07869333      50.06095965
C       52.46319295      49.63422766      50.18570908
C       51.36022810      48.77261458      50.07294927
C       50.07189560      49.26933105      49.99602739
H       49.09061194      47.49088165      50.37277430
H       46.71555820      48.53393688      50.37654415
H       46.55512086      50.89182492      49.79427265
H       48.53990150      52.37558178      49.57975192
H       50.85447280      52.57237501      49.63455109
H       53.14759963      51.74876321      50.16056403
H       53.48772307      49.10699107      50.18773906
H       51.42451111      47.67162030      50.24169377
