18
Lattice="100.0 0.0 0.0 0.0 100.0 0.0 0.0 0.0 100.0" Properties=species:S:1:pos:R:3 Energy=-241637.25 Energy_pyscf=-241638.89411157998 pbc="F F F"
C       49.00328991      48.53288454      50.03978138
C       47.72465181      49.06461369      50.07016032
C       47.50605683      50.47654468      49.89773146
C       48.62828747      51.23986976      49.75453829
C       49.95379413      50.76745974      50.00882780
C       51.11140572      51.46499165      49.97506392
C       52.35094935      50.88211108      49.91472031
C       52.47503767      49.48514412      50.14449150
C       51.35600414      48.70824569      50.35680736
C       50.14799325      49.33390957      50.10028308
H       49.21506361      47.47003297      50.07593935
H       46.83064326      48.31967925      50.11209216
H       46.55093033      50.83931333      49.77254544
H       48.52239164      52.28915873      49.64953880
H       50.94049204      52.53233540      49.76726317
H       53.26966324      51.39127221      49.87772409
H       53.45288075      49.04854089      50.17739846
H       51.21761906      47.62733359      50.56236971
