18
Lattice="100.0 0.0 0.0 0.0 100.0 0.0 0.0 0.0 100.0" Properties=species:S:1:pos:R:3 Energy=-241638.1875 Energy_pyscf=-241640.68033904218 pbc="F F F"
C       48.93708721      48.48086044      50.22085888
C       47.66875460      49.06013074      50.11717714
C       47.46822514      50.43929222      49.83922542
C       48.67398913      51.29492621      49.81915680
C       49.95134946      50.68983791      49.95588745
C       51.12717399      51.47019190      49.91638777
C       52.37627809      50.89006571      50.07183390
C       52.46349225      49.53098844      50.24046585
C       51.32761065      48.68675726      50.30800149
C       50.06728230      49.29292827      50.16501667
H       49.15366851      47.40922657      50.04715365
H       46.84423831      48.24291964      50.13374665
H       46.61159058      50.95811089      49.72324521
H       48.46375515      52.36820883      49.64342484
H       50.96064640      52.56801126      49.66058765
H       53.31441808      51.38896708      49.93207564
H       53.45264009      49.09963230      50.11368260
H       51.40163076      47.60157361      50.40261716
