18
Lattice="100.0 0.0 0.0 0.0 100.0 0.0 0.0 0.0 100.0" Properties=species:S:1:pos:R:3 Energy=-241653.78125 Energy_pyscf=-241649.19187160055 Energy_nn=-241651.140625 pbc="F F F"
C       48.96106875      48.48632713      50.04750012
C       47.71483391      49.02627964      49.99103704
C       47.65133628      50.48972955      49.84445254
C       48.72192526      51.27701608      49.79645398
C       50.05166661      50.78170599      49.97478659
C       51.28433470      51.53976639      49.75383268
C       52.53104713      50.91990838      49.91265778
C       52.62514630      49.56975487      50.17177068
C       51.45021690      48.81496652      50.31450577
C       50.16844907      49.32371974      50.04558121
H       49.08139237      47.42791972      50.10668200
H       46.78848662      48.40587513      50.11449313
H       46.58054890      50.88001800      49.73564105
H       48.72034434      52.38881060      49.74762478
H       51.20037079      52.59026471      49.45148020
H       53.49681987      51.48011806      49.73736480
H       53.62488150      49.14152102      50.22178097
H       51.59949351      47.74791699      50.55924341
