18
Lattice="100.0 0.0 0.0 0.0 100.0 0.0 0.0 0.0 100.0" Properties=species:S:1:pos:R:3 Energy=-241645.859375 Energy_pyscf=-241648.44995040607 pbc="F F F"
C       48.81288340      48.54921302      50.14710295
C       47.62800868      49.22062221      50.04170012
C       47.44684128      50.59040226      49.76306852
C       48.59674530      51.37874142      49.73813208
C       49.86845768      50.76546490      49.90088149
C       51.01074934      51.48166284      49.81173440
C       52.24405595      50.97053209      49.90759428
C       52.45478421      49.59992901      50.13371809
C       51.27301309      48.79966775      50.24951686
C       49.98943802      49.35792812      50.08465365
H       48.90952237      47.45627023      50.37147612
H       46.70805981      48.65117089      50.21456902
H       46.38611225      51.02860083      49.71811618
H       48.51298361      52.39959192      49.37763796
H       50.83295298      52.51786138      49.52369170
H       53.04975170      51.69920008      49.67321801
H       53.43394663      49.07569567      50.12049754
H       51.33339618      47.74583528      50.60247867
