18
Lattice="100.0 0.0 0.0 0.0 100.0 0.0 0.0 0.0 100.0" Properties=species:S:1:pos:R:3 Energy=-241639.625 Energy_pyscf=-241643.23972084303 pbc="F F F"
C       48.78494129      48.42637529      50.20622262
C       47.54633238      48.99452169      49.93826541
C       47.42398634      50.42950344      49.67754832
C       48.64564505      51.14394732      49.70022943
C       49.89312252      50.54725199      49.96171461
C       51.06266371      51.46791715      49.89196715
C       52.31980309      50.90622771      50.10749880
C       52.44906394      49.50475024      50.06476358
C       51.32992352      48.67802849      50.19099570
C       49.97602571      49.18226768      50.20033734
H       48.84234073      47.31359769      50.54509004
H       46.64193089      48.45258822      50.28981882
H       46.40286233      50.82068183      49.48106698
H       48.55720659      52.16339247      49.51909141
H       50.91194053      52.57127155      49.76787701
H       53.14057223      51.63920308      49.99512608
H       53.46611593      49.05261067      49.98442661
H       51.38261492      47.55390194      50.32468360
