18
Lattice="100.0 0.0 0.0 0.0 100.0 0.0 0.0 0.0 100.0" Properties=species:S:1:pos:R:3 Energy=-241629.09375 Energy_pyscf=-241627.72269684222 Energy_nn=-241629.328125 pbc="F F F"
C       48.82916121      48.55376089      50.31775604
C       47.58031010      49.09078395      50.19090035
C       47.46362398      50.44629965      49.91388882
C       48.59697443      51.19146558      49.62580582
C       49.92946717      50.72819866      49.81720710
C       51.11010075      51.45862677      50.01764346
C       52.39827445      50.89331900      50.27232074
C       52.58046127      49.44620549      50.25504361
C       51.37740744      48.74549637      50.23959410
C       49.96490923      49.29740122      50.05372502
H       49.01780893      47.55954027      50.64234672
H       46.73399187      48.46137488      50.37410693
H       46.47130063      50.76723635      50.25903221
H       48.60278056      52.27919245      49.41624078
H       51.20666077      52.52481162      49.75752503
H       53.22396094      51.62246124      50.22179295
H       53.45645500      48.88987085      50.35871784
H       51.42867292      47.71566792      50.13238293
