18
Lattice="100.0 0.0 0.0 0.0 100.0 0.0 0.0 0.0 100.0" Properties=species:S:1:pos:R:3 Energy=-241628.234375 Energy_pyscf=-241625.6043017482 Energy_nn=-241628.859375 pbc="F F F"
C       48.95299584      48.48239521      49.94050469
C       47.74027898      48.97821566      49.94229888
C       47.61277163      50.42521078      49.86247422
C       48.74670590      51.29111569      49.85434540
C       50.07491327      50.76041380      49.93707611
C       51.24969275      51.54584106      49.72150476
C       52.53007995      50.91583390      49.90361036
C       52.57008705      49.62882244      50.29592402
C       51.43020527      48.80634814      50.44838291
C       50.07977650      49.31972510      50.06027987
H       49.19664189      47.43145835      50.14248041
H       46.82138073      48.43049235      50.19600110
H       46.62168393      50.92653514      49.66763723
H       48.80841912      52.40308746      49.75731112
H       51.16857860      52.58142053      49.43897589
H       53.53312913      51.47514922      49.78268584
H       53.54910028      49.12498655      50.06718600
H       51.52794562      47.80633605      50.48460148
