18
Lattice="100.0 0.0 0.0 0.0 100.0 0.0 0.0 0.0 100.0" Properties=species:S:1:pos:R:3 Energy=-241639.515625 Energy_pyscf=-241640.18726051858 Energy_nn=-241641.109375 pbc="F F F"
C       48.81391092      48.61761155      50.31741815
C       47.62733868      49.19401103      50.02953462
C       47.49036604      50.65188995      49.78998008
C       48.57541455      51.44586440      49.79946580
C       49.88585215      50.83973672      50.00266646
C       51.09472375      51.62761108      49.97556620
C       52.37874548      51.06533860      50.00228497
C       52.53945345      49.70199887      50.20065198
C       51.39808465      48.86504966      50.30095496
C       50.03148142      49.37841960      50.22241669
H       48.68234169      47.48044163      50.40848319
H       46.81418739      48.55646863      49.97280231
H       46.42526817      51.15229646      49.78140749
H       48.56976671      52.50599836      49.55788166
H       50.97852629      52.66549355      49.66078726
H       53.06983230      51.85207520      49.97313705
H       53.58435575      49.21137976      50.27540201
H       51.49589870      47.83259839      50.41889434
