18
Lattice="100.0 0.0 0.0 0.0 100.0 0.0 0.0 0.0 100.0" Properties=species:S:1:pos:R:3 Energy=-241644.0 Energy_pyscf=-241642.19409314202 Energy_nn=-241645.859375 pbc="F F F"
C       48.80222712      48.48062959      50.12471739
C       47.60366967      49.04706711      49.90144667
C       47.53193501      50.44006103      49.76729630
C       48.66950482      51.20862452      49.61347664
C       49.95939832      50.67956444      49.78184252
C       51.11616476      51.54412149      49.87572585
C       52.34428736      50.92217115      49.96046799
C       52.45347101      49.51326285      49.90948903
C       51.28718307      48.74260904      50.16397914
C       50.02733060      49.29530339      50.06818122
H       48.74959163      47.42477268      50.39474810
H       46.71573574      48.39836943      49.86830265
H       46.59813903      51.06146252      49.65417682
H       48.46255962      52.32354889      49.56401981
H       50.88486807      52.58977986      49.76084881
H       53.26059196      51.54706483      49.95328365
H       53.46155859      48.98050132      49.83163008
H       51.59950148      47.70835257      50.05697437
