18
Lattice="100.0 0.0 0.0 0.0 100.0 0.0 0.0 0.0 100.0" Properties=species:S:1:pos:R:3 Energy=-241625.484375 Energy_pyscf=-241623.24826045512 pbc="F F F"
C       48.74092440      48.42557942      50.07013998
C       47.53997906      49.06158147      49.81192381
C       47.46202413      50.40330725      49.78075748
C       48.62640417      51.28064539      49.72635788
C       49.86596203      50.72806151      50.00092762
C       51.09211529      51.55050399      49.90378298
C       52.35616394      50.94224227      49.73003773
C       52.44022744      49.59244507      50.10847711
C       51.34819568      48.74434617      50.17492290
C       49.98932749      49.28681387      50.12264140
H       48.95102458      47.38048181      50.13221762
H       46.60648175      48.59679389      49.59763235
H       46.54756011      50.82372254      49.53332827
H       48.38239174      52.31048872      49.61746570
H       51.10382045      52.68855975      49.64218924
H       53.10788072      51.58591144      49.36291863
H       53.33401639      48.88008493      50.15911492
H       51.57828899      47.81811798      50.69752803
