18
Lattice="100.0 0.0 0.0 0.0 100.0 0.0 0.0 0.0 100.0" Properties=species:S:1:pos:R:3 Energy=-241631.4375 Energy_pyscf=-241632.57714837315 pbc="F F F"
C       48.83585018      48.50869694      50.13770327
C       47.50942818      49.14234875      50.02087623
C       47.39420819      50.54641290      49.87298447
C       48.53344458      51.34332941      49.73176231
C       49.86398722      50.76536126      49.90211201
C       50.96361210      51.59671562      49.76825525
C       52.24846427      51.01829445      49.90221426
C       52.49180393      49.60348708      50.10064345
C       51.32397801      48.83330922      50.22110222
C       50.03621349      49.38194928      50.04043229
H       48.82844168      47.43612721      50.37753016
H       46.68788124      48.62279657      50.26064622
H       46.50561207      51.16782176      49.59587296
H       48.49068739      52.37004604      49.39479654
H       50.75620987      52.59861525      49.50552949
H       53.18915678      51.58859779      49.73157076
H       53.57658828      49.09323874      50.11607808
H       51.29160181      47.73446834      50.61667206
