18
Lattice="100.0 0.0 0.0 0.0 100.0 0.0 0.0 0.0 100.0" Properties=species:S:1:pos:R:3 Energy=-241609.375 Energy_pyscf=-241607.26382192835 Energy_nn=-241613.6875 pbc="F F F"
C       48.76073977      48.57054727      50.21493367
C       47.57564263      49.14811999      49.94822085
C       47.40608654      50.54037646      49.87352770
C       48.49601713      51.18284732      49.75900411
C       49.75272285      50.63680211      50.15405568
C       50.87150533      51.45876903      50.05284336
C       52.11097777      50.86751964      49.87726836
C       52.42544183      49.49098134      50.00208251
C       51.19089820      48.72323484      50.34987364
C       49.99134369      49.25241420      50.20854489
H       48.90692624      47.50192156      50.15572195
H       46.77377623      48.53071713      49.53900875
H       46.50650998      50.92191148      49.46541317
H       48.58630167      52.33015819      49.40775557
H       50.84505831      52.53807335      49.86114205
H       52.93844467      51.58889963      49.65336463
H       53.40094960      48.94562271      49.83506210
H       51.25552150      47.52740183      50.46365467
