18
Lattice="100.0 0.0 0.0 0.0 100.0 0.0 0.0 0.0 100.0" Properties=species:S:1:pos:R:3 Energy=-241638.453125 Energy_pyscf=-241636.97043050386 Energy_nn=-241638.28125 pbc="F F F"
C       48.84437820      48.49964880      50.36026653
C       47.62331341      49.08794039      50.10127625
C       47.47717853      50.45805256      49.94444390
C       48.59578215      51.28937014      49.77450276
C       49.97824887      50.70521464      49.92447711
C       51.14252391      51.47213269      49.95366378
C       52.37152924      50.91964033      50.16604314
C       52.53780460      49.43937720      50.26195765
C       51.37109925      48.76228032      50.22982349
C       50.05900940      49.30066569      50.05289402
H       48.95133169      47.41019339      50.59528451
H       46.68919901      48.43919774      50.40440730
H       46.46881277      50.87190529      50.15876285
H       48.48192619      52.30494680      49.40344460
H       51.12136324      52.54174146      49.74528237
H       53.22795603      51.54434266      50.24347238
H       53.54082566      48.89415429      50.39377750
H       51.48319205      47.72173183      50.18761758
