18
Lattice="100.0 0.0 0.0 0.0 100.0 0.0 0.0 0.0 100.0" Properties=species:S:1:pos:R:3 Energy=-241645.078125 Energy_pyscf=-241645.09475554604 Energy_nn=-241646.59375 pbc="F F F"
C       48.97594845      48.53380933      50.16695691
C       47.68780415      49.00998287      50.06884838
C       47.46509988      50.43930846      49.84578740
C       48.64079927      51.23561327      49.82211231
C       49.94177039      50.75413947      50.05074312
C       51.12262215      51.47395892      49.98342407
C       52.34946173      50.88473044      49.94699352
C       52.47649738      49.49850382      50.15313771
C       51.37043597      48.74862374      50.32413191
C       50.13592002      49.36310591      50.10446307
H       49.14794453      47.45120873      50.07510777
H       46.83935766      48.27057789      50.12183106
H       46.50901188      50.91335201      49.71622721
H       48.51969899      52.35007921      49.64819812
H       50.97298252      52.50779039      49.70008337
H       53.25879793      51.38887804      49.94139331
H       53.45321381      48.99981748      50.15758983
H       51.36710793      47.63119478      50.45972557
