18
Lattice="100.0 0.0 0.0 0.0 100.0 0.0 0.0 0.0 100.0" Properties=species:S:1:pos:R:3 Energy=-241640.90625 Energy_pyscf=-241639.91603948167 Energy_nn=-241642.0625 pbc="F F F"
C       48.88571727      48.48336687      50.32875945
C       47.64945689      49.07641331      50.14297061
C       47.52498969      50.46688247      49.95713391
C       48.64594885      51.24560822      49.67246354
C       49.91561486      50.69191006      49.88037976
C       51.10638633      51.48984126      49.90216537
C       52.40883467      50.93391429      50.19803472
C       52.49919744      49.47424936      50.26558524
C       51.32217086      48.79205744      50.23206028
C       50.01003768      49.31994448      50.03489275
H       49.05080135      47.43980616      50.62215775
H       46.75497374      48.41108959      50.39060091
H       46.49788882      50.86263224      50.24934345
H       48.57631051      52.25501164      49.37630370
H       51.12347564      52.54902184      49.80922842
H       53.25070128      51.60348663      50.27593870
H       53.41952666      48.85723889      50.36664213
H       51.33492228      47.71416896      50.18694608
