18
Lattice="100.0 0.0 0.0 0.0 100.0 0.0 0.0 0.0 100.0" Properties=species:S:1:pos:R:3 Energy=-241651.390625 Energy_pyscf=-241646.71267361744 Energy_nn=-241649.375 pbc="F F F"
C       48.90721763      48.47940590      50.17300847
C       47.62785252      49.13171927      50.11753137
C       47.48743325      50.57150829      49.88458418
C       48.59472961      51.31123459      49.72170639
C       49.86470440      50.69809061      50.03322936
C       51.02176633      51.52665606      49.97901215
C       52.32024975      50.98508839      49.97798177
C       52.50601342      49.60424134      50.21179323
C       51.36135641      48.72929900      50.36582872
C       50.07154297      49.25211977      50.22242601
H       49.06105636      47.38885375      50.30721798
H       46.79350184      48.34996731      49.97069092
H       46.46248096      51.00269066      49.71805930
H       48.61201926      52.41442900      49.53316686
H       50.91977310      52.58363112      49.86410851
H       53.22076898      51.56482124      49.76246122
H       53.57178575      49.17292234      50.28108461
H       51.51757369      47.62081009      50.49454903
