18
Lattice="100.0 0.0 0.0 0.0 100.0 0.0 0.0 0.0 100.0" Properties=species:S:1:pos:R:3 Energy=-241633.421875 Energy_pyscf=-241634.390039735 Energy_nn=-241633.6875 pbc="F F F"
C       48.82075929      48.50555235      50.03219328
C       47.58528244      49.05730197      49.77156132
C       47.51361364      50.50758946      49.84485769
C       48.68559666      51.21406006      49.74676478
C       49.93147582      50.69174824      49.96035934
C       51.05189104      51.54639843      49.86318753
C       52.25753580      50.94905706      49.73193456
C       52.48266826      49.56547569      50.05948493
C       51.33006266      48.76396172      50.37515206
C       49.96144259      49.28285433      50.19425362
H       48.82301073      47.38253500      50.06329739
H       46.61061674      48.54419923      49.57928088
H       46.55658616      50.90484944      49.52490263
H       48.50467182      52.24869874      49.58746811
H       50.88617316      52.58942786      49.70314294
H       53.06271174      51.45785382      49.36987064
H       53.42570797      49.09509820      50.06023032
H       51.54889840      47.77707820      50.70356616
