18
Lattice="100.0 0.0 0.0 0.0 100.0 0.0 0.0 0.0 100.0" Properties=species:S:1:pos:R:3 Energy=-241636.03125 Energy_pyscf=-241633.66089645273 Energy_nn=-241638.109375 pbc="F F F"
C       48.86459495      48.51268091      50.27745213
C       47.59829253      49.12276551      49.80664462
C       47.42039112      50.46275620      49.52016022
C       48.51958555      51.31021985      49.70820092
C       49.79260728      50.78370902      50.01836882
C       50.97104527      51.53635949      49.83931780
C       52.21466487      50.98679598      49.94570595
C       52.46169701      49.57077544      50.00358546
C       51.31808439      48.70123957      50.17592477
C       49.99266369      49.32544063      50.14988251
H       48.91775184      47.38700889      50.29198612
H       46.75539473      48.53435167      49.65104978
H       46.45079739      50.92477919      49.40120646
H       48.59094584      52.37286105      49.66923923
H       50.92743392      52.58724966      49.57384019
H       53.03331518      51.56009826      49.56492624
H       53.46608442      49.05260798      50.00010519
H       51.40932174      47.66959142      50.58535939
