18
Lattice="100.0 0.0 0.0 0.0 100.0 0.0 0.0 0.0 100.0" Properties=species:S:1:pos:R:3 Energy=-241628.625 Energy_pyscf=-241626.324075705 Energy_nn=-241627.203125 pbc="F F F"
C       48.74451866      48.48947726      50.19653885
C       47.51274785      49.06702406      49.87001738
C       47.42118825      50.41561981      49.74233536
C       48.53310527      51.23190785      49.67448077
C       49.74781719      50.67383625      50.07600048
C       50.91350086      51.45505157      50.02580443
C       52.15501980      50.83900363      49.83975170
C       52.33912962      49.49483253      50.02359610
C       51.23677329      48.65796534      50.21055510
C       49.96399161      49.22272991      50.23865460
H       49.02473068      47.49083935      50.31085432
H       46.57297406      48.57518652      49.46658018
H       46.54251526      50.99067659      49.65278155
H       48.61180549      52.33928141      49.48570365
H       50.89165799      52.53720227      49.86540526
H       52.96812988      51.63814772      49.74057243
H       53.29288823      48.97535663      49.79156431
H       51.28870649      47.65307013      50.57796404
