18
Lattice="100.0 0.0 0.0 0.0 100.0 0.0 0.0 0.0 100.0" Properties=species:S:1:pos:R:3 Energy=-241629.140625 Energy_pyscf=-241633.37406562897 Energy_nn=-241629.65625 pbc="F F F"
C       48.96950869      48.50382110      50.21711254
C       47.67733552      49.02199607      50.07765962
C       47.44698055      50.47637040      49.78941440
C       48.58332079      51.26701952      49.81868983
C       49.91115968      50.71119904      50.05752588
C       51.09833059      51.44947347      49.92174683
C       52.40645999      50.94176472      49.96235169
C       52.52983852      49.51750975      50.12596684
C       51.36951815      48.77475031      50.33022915
C       50.14353544      49.34630824      50.28446892
H       49.18766287      47.47228911      50.00442428
H       46.84935156      48.27344694      50.14269475
H       46.46543775      50.99587565      49.68518306
H       48.58421500      52.27313896      49.64630616
H       50.82082798      52.46060452      49.67514364
H       53.38274974      51.33600307      49.97814631
H       53.47686126      48.94413265      50.14217971
H       51.38728209      47.68967230      50.40939903
