18
Lattice="100.0 0.0 0.0 0.0 100.0 0.0 0.0 0.0 100.0" Properties=species:S:1:pos:R:3 Energy=-241630.5625 Energy_pyscf=-241632.69006716623 Energy_nn=-241632.46875 pbc="F F F"
C       48.90236986      48.55653931      50.35259404
C       47.62131072      49.03319623      50.23511587
C       47.45928830      50.46277161      49.96133565
C       48.59289588      51.16685741      49.64120855
C       49.88136690      50.72807165      49.88588990
C       51.11657409      51.46979969      49.90765147
C       52.32878281      50.88416121      50.12751110
C       52.53949720      49.44706981      50.30372308
C       51.33314026      48.81735946      50.11709612
C       50.06288195      49.34092293      50.10935057
H       48.94971190      47.42670966      50.53057495
H       46.75897461      48.31468020      50.38775162
H       46.53256711      50.92230111      50.13989568
H       48.65047734      52.26208481      49.49524907
H       51.22479940      52.53063688      49.83976693
H       53.16339834      51.59457776      50.19509668
H       53.48076057      48.84309813      50.41339435
H       51.37485890      47.77025856      50.25579450
