18
Lattice="100.0 0.0 0.0 0.0 100.0 0.0 0.0 0.0 100.0" Properties=species:S:1:pos:R:3 Energy=-241622.484375 Energy_pyscf=-241623.24154222227 Energy_nn=-241623.09375 pbc="F F F"
C       48.88698559      48.48732046      50.14869472
C       47.68027024      49.06653167      49.82323232
C       47.45482706      50.42639482      49.75073313
C       48.59685257      51.22869976      49.76849746
C       49.81263107      50.60657753      50.01402246
C       51.00794430      51.58073039      49.97310613
C       52.17575894      50.91374131      49.99153861
C       52.33196897      49.53417668      49.95107140
C       51.32599020      48.69675222      50.36422938
C       49.99184626      49.23600670      50.25299795
H       48.88870268      47.37943250      50.11563505
H       46.80590269      48.49447530      49.63011638
H       46.52036567      51.00993029      49.52648432
H       48.43293302      52.18873707      49.46353129
H       50.93865725      52.65715630      50.13461349
H       53.02791986      51.53420645      49.66702768
H       53.43653747      49.23323610      49.81664576
H       51.45654579      47.60256084      50.48594301
