18
Lattice="100.0 0.0 0.0 0.0 100.0 0.0 0.0 0.0 100.0" Properties=species:S:1:pos:R:3 Energy=-241651.90625 Energy_pyscf=-241647.54318872158 Energy_nn=-241650.765625 pbc="F F F"
C       49.00763874      48.50054395      50.13339594
C       47.72680432      49.05530425      49.98331361
C       47.64734004      50.48668486      49.85333036
C       48.75264046      51.26028841      49.71225834
C       50.05365970      50.69936410      49.89519211
C       51.20811295      51.50226739      49.71649332
C       52.52429425      50.97876116      49.94092287
C       52.61792562      49.59781872      50.21312215
C       51.44069903      48.81585309      50.36488712
C       50.17648259      49.30586122      50.07617857
H       49.12767248      47.41895088      50.04513578
H       46.76525597      48.55808942      50.15790850
H       46.60843468      50.82195484      49.70101806
H       48.86098331      52.35817540      49.78740739
H       51.11802188      52.55864485      49.46978821
H       53.43708082      51.56474890      49.77314778
H       53.58361502      49.08743385      50.18846383
H       51.60023213      47.74180483      50.47954299
