18
Lattice="100.0 0.0 0.0 0.0 100.0 0.0 0.0 0.0 100.0" Properties=species:S:1:pos:R:3 Energy=-241622.984375 Energy_pyscf=-241620.62712914567 Energy_nn=-241624.9375 pbc="F F F"
C       48.87657418      48.47277514      50.18972927
C       47.58477987      49.07077711      50.14778844
C       47.47565536      50.42472006      49.78453540
C       48.63378578      51.23549982      49.76142523
C       50.01366258      50.76717953      49.96063412
C       51.27470672      51.55220057      49.85673147
C       52.33837479      50.83553072      49.93002477
C       52.50325122      49.48757737      50.20938542
C       51.30142848      48.80429783      50.20778995
C       50.08116086      49.36001926      50.19772679
H       48.89551061      47.33611685      50.24045136
H       46.73615659      48.39044026      49.93754430
H       46.47219129      50.73799641      49.72664677
H       48.27557837      52.23979610      49.50513855
H       51.16760463      52.63039637      49.63606797
H       53.31324502      51.39315590      49.96343295
H       53.52009215      49.21862400      50.53179714
H       51.37694235      47.72678255      50.33611329
