18
Lattice="100.0 0.0 0.0 0.0 100.0 0.0 0.0 0.0 100.0" Properties=species:S:1:pos:R:3 Energy=-241641.109375 Energy_pyscf=-241638.75839773053 Energy_nn=-241642.375 pbc="F F F"
C       49.01548098      48.46880043      50.20124843
C       47.67356820      48.99334835      49.96963422
C       47.59192272      50.36470481      49.72142274
C       48.72446158      51.25555803      49.72985804
C       50.05468244      50.77445535      49.99299868
C       51.18026883      51.53854225      49.76328675
C       52.47579430      50.87522404      49.91847156
C       52.57204352      49.47496743      50.12643396
C       51.47005969      48.70885174      50.15122187
C       50.18389114      49.30988879      50.21458114
H       49.17309437      47.46112284      50.27364276
H       46.83703980      48.22423520      50.01750608
H       46.59909763      50.77189359      49.62583656
H       48.57273584      52.31024588      49.55498802
H       51.16411685      52.63432873      49.70305397
H       53.42967507      51.37886375      50.11762499
H       53.52109713      49.03615838      50.26584366
H       51.47593081      47.61367768      50.45038500
