18
Lattice="100.0 0.0 0.0 0.0 100.0 0.0 0.0 0.0 100.0" Properties=species:S:1:pos:R:3 Energy=-241613.28125 Energy_pyscf=-241615.06078918622 Energy_nn=-241616.59375 pbc="F F F"
C       48.81170094      48.51054183      49.85748751
C       47.64296612      49.12101855      50.15831333
C       47.56424023      50.45354746      49.76380538
C       48.61020963      51.16819564      49.39830427
C       49.93605583      50.63354336      49.52301255
C       51.04524491      51.45392665      49.66908525
C       52.28888562      50.99967739      49.94314075
C       52.42617161      49.55634194      50.12402788
C       51.29800703      48.71718249      49.92108362
C       50.03490611      49.26486364      49.77305388
H       48.70407085      47.42724325      49.62860741
H       46.78355046      48.75085626      50.56796463
H       46.66069532      51.05750704      49.80576033
H       48.49508874      52.29192466      49.38857075
H       50.87958207      52.50205947      49.45922698
H       53.24093121      51.73581308      50.26997689
H       53.41373781      49.15021254      50.31224239
H       51.44257285      47.76396861      50.52846414
