18
Lattice="100.0 0.0 0.0 0.0 100.0 0.0 0.0 0.0 100.0" Properties=species:S:1:pos:R:3 Energy=-241645.140625 Energy_pyscf=-241644.82524241874 Energy_nn=-241647.078125 pbc="F F F"
C       48.88030033      48.55477903      50.15650369
C       47.60473731      49.11392897      50.07978119
C       47.49313597      50.55423175      49.82523340
C       48.59386635      51.29841978      49.82464570
C       49.87224176      50.71650638      50.17866849
C       51.06940155      51.56648236      50.10822867
C       52.32140297      50.97538468      49.99684228
C       52.49936720      49.58859941      50.23812415
C       51.35636400      48.74353325      50.37208974
C       50.07529654      49.33843715      50.24009366
H       49.02788693      47.45951203      50.32117792
H       46.82108892      48.35102933      49.96150628
H       46.47481036      50.93324739      49.76794212
H       48.62088406      52.28727441      49.44088525
H       50.93892775      52.63162921      49.77367110
H       53.19824364      51.53461521      49.71214740
H       53.49180056      49.15274761      50.24163605
H       51.55363931      47.63362658      50.44222273
