18
Lattice="100.0 0.0 0.0 0.0 100.0 0.0 0.0 0.0 100.0" Properties=species:S:1:pos:R:3 Energy=-241658.734375 Energy_pyscf=-241648.7378927454 Energy_nn=-241652.234375 pbc="F F F"
C       48.86588292      48.42999238      50.25803413
C       47.57377865      49.01851245      50.04284669
C       47.42097348      50.41787216      49.69552388
C       48.60483619      51.10229989      49.66617583
C       49.89313573      50.60188332      49.98461998
C       51.04267948      51.45546327      49.91769604
C       52.28874341      50.85743286      50.05406291
C       52.46850028      49.49618611      50.02215875
C       51.36102130      48.65563046      50.25294889
C       50.03549991      49.18742930      50.17138526
H       48.85409763      47.37537943      50.52746056
H       46.63512191      48.47027691      50.20788193
H       46.43508492      50.83010971      49.45262211
H       48.57873861      52.18630028      49.45641045
H       50.85942408      52.55185314      49.86875261
H       53.06292272      51.64078334      49.98564013
H       53.51792540      49.03361099      49.97862281
H       51.34399151      47.54691621      50.29292943
