18
Lattice="100.0 0.0 0.0 0.0 100.0 0.0 0.0 0.0 100.0" Properties=species:S:1:pos:R:3 Energy=-241640.828125 Energy_pyscf=-241640.42034392498 Energy_nn=-241642.46875 pbc="F F F"
C       48.81896215      48.51623640      49.89593809
C       47.61784535      49.12605687      49.96377564
C       47.53331757      50.50253589      49.74309212
C       48.66006294      51.28758560      49.49821597
C       49.94539543      50.69489409      49.68853855
C       51.03657587      51.53946595      49.67479758
C       52.32937428      51.00205852      49.92501659
C       52.44963853      49.55425095      50.09540053
C       51.31157838      48.68075756      50.06920664
C       50.03817133      49.24706147      49.77848930
H       48.79444668      47.39305504      49.73779010
H       46.78538338      48.66017271      50.47666547
H       46.50642559      51.04806633      49.86268278
H       48.45826146      52.32237818      49.34053212
H       50.87415877      52.58165102      49.40642118
H       53.23984496      51.65073112      50.12920845
H       53.41654135      49.09479568      50.35662782
H       51.45547648      47.67331449      50.43879735
