18
Lattice="100.0 0.0 0.0 0.0 100.0 0.0 0.0 0.0 100.0" Properties=species:S:1:pos:R:3 Energy=-241633.6875 Energy_pyscf=-241633.3032613273 pbc="F F F"
C       48.77067725      48.48320252      50.18040134
C       47.64493490      49.09777090      49.84022320
C       47.50801109      50.54447198      49.65960452
C       48.60265347      51.33626679      49.69013155
C       49.78790336      50.68346708      49.83266358
C       50.97460146      51.51086982      49.80621179
C       52.22851776      50.95060750      49.95457672
C       52.46111583      49.61931938      49.99742634
C       51.34325679      48.71017256      50.28036522
C       49.96043713      49.24212241      50.15276044
H       48.74494186      47.40274535      50.37193632
H       46.78726975      48.52389054      49.65931939
H       46.47793346      50.90360073      49.48439453
H       48.50809531      52.48034764      49.49414787
H       50.87359148      52.53275972      49.66864750
H       53.10945414      51.61831135      49.60382941
H       53.46496673      49.21654467      50.00098213
H       51.43551525      47.59954224      50.49571223
