18
Lattice="100.0 0.0 0.0 0.0 100.0 0.0 0.0 0.0 100.0" Properties=species:S:1:pos:R:3 Energy=-241638.015625 Energy_pyscf=-241637.8292546418 pbc="F F F"
C       48.95342718      48.51368328      50.19986093
C       47.61844084      49.06658260      50.09096334
C       47.51529711      50.46139278      49.73725402
C       48.59758310      51.26702223      49.85990533
C       49.90942241      50.80298147      50.10943751
C       51.11500978      51.52423436      50.01509153
C       52.38439045      50.83220018      50.01375424
C       52.51279897      49.44660078      50.12638384
C       51.37624241      48.72836402      50.38548937
C       50.11429876      49.34005495      50.24209931
H       49.16099300      47.43735031      50.08760290
H       46.90938612      48.23379080      50.04533585
H       46.44210205      50.93058577      49.70769846
H       48.49183405      52.31135926      49.65816731
H       50.93160788      52.59491936      49.61963917
H       53.30810465      51.34527003      49.84122263
H       53.52094748      48.98752010      50.13154141
H       51.38448684      47.62468045      50.39096732
