18
Lattice="100.0 0.0 0.0 0.0 100.0 0.0 0.0 0.0 100.0" Properties=species:S:1:pos:R:3 Energy=-241645.234375 Energy_pyscf=-241645.59625020708 Energy_nn=-241646.046875 pbc="F F F"
C       48.79892901      48.51270886      50.13808706
C       47.50340334      49.04633473      49.90912344
C       47.38780067      50.48615045      49.75053546
C       48.52050485      51.21521292      49.74432306
C       49.77953817      50.66050046      49.98172635
C       50.91856492      51.50033839      49.88297323
C       52.17995296      50.90806836      49.91083794
C       52.36396547      49.44830873      49.96197090
C       51.27914313      48.69524178      50.29573815
C       49.95892900      49.25532018      50.21635264
H       48.85571778      47.43395012      50.24802164
H       46.59280527      48.53569046      49.54474564
H       46.45279557      50.97126575      49.58464589
H       48.62497635      52.30138651      49.52983615
H       50.81463291      52.59656054      49.96255418
H       53.05072144      51.56780686      49.68215747
H       53.35965893      48.96262373      49.86474516
H       51.31276333      47.62182112      50.57581737
