18
Lattice="100.0 0.0 0.0 0.0 100.0 0.0 0.0 0.0 100.0" Properties=species:S:1:pos:R:3 Energy=-241616.09375 Energy_pyscf=-241610.04868322168 Energy_nn=-241617.375 pbc="F F F"
C       48.87709268      48.59242925      50.28947659
C       47.61669827      49.18140349      50.14837886
C       47.48534383      50.54168671      49.81301237
C       48.60073326      51.34756189      50.05340371
C       49.89913234      50.83056906      50.35879914
C       51.11464269      51.51507973      50.01122044
C       52.29416155      51.03701958      50.01274624
C       52.52048567      49.62955673      50.15159893
C       51.41646534      48.87891891      50.52811880
C       50.04256490      49.44949734      50.47091564
H       48.84282925      47.50232438      50.63690781
H       46.76052374      48.63754322      50.04022510
H       46.62761272      50.89259866      49.25208918
H       48.44063750      52.30017792      49.82496467
H       51.01275790      52.52209637      49.71115422
H       53.08408972      51.57129896      49.51618537
H       53.35302422      49.08016956      49.90360397
H       51.51440573      47.90697592      50.77362927
