18
Lattice="100.0 0.0 0.0 0.0 100.0 0.0 0.0 0.0 100.0" Properties=species:S:1:pos:R:3 Energy=-241642.234375 Energy_pyscf=-241641.3117998781 Energy_nn=-241642.234375 pbc="F F F"
C       48.88853147      48.51806044      50.12098484
C       47.65530997      49.06391767      50.16615431
C       47.59743739      50.45563037      49.84031689
C       48.66237710      51.29011296      49.60918721
C       49.95893984      50.69506688      49.77499214
C       51.04192642      51.52921946      49.87803629
C       52.38296943      51.02836256      50.07749168
C       52.45944050      49.61422993      50.24377799
C       51.36124609      48.75976626      50.01129932
C       50.04780765      49.33755571      49.90249291
H       49.02558056      47.51532900      50.40012727
H       46.69332110      48.55443181      50.45333061
H       46.55095612      50.87841266      49.81921634
H       48.51280745      52.36859212      49.55335695
H       50.83282562      52.54930542      49.59032752
H       53.15459001      51.81855250      50.25995149
H       53.45963059      49.10292432      50.21088453
H       51.45902781      47.64448526      50.17147602
