18
Lattice="100.0 0.0 0.0 0.0 100.0 0.0 0.0 0.0 100.0" Properties=species:S:1:pos:R:3 Energy=-241629.40625 Energy_pyscf=-241626.95719951362 Energy_nn=-241629.734375 pbc="F F F"
C       48.85047756      48.46713280      50.21531921
C       47.64865932      49.15938043      49.75075720
C       47.48399758      50.52236330      49.53573788
C       48.53202989      51.32144038      49.76062505
C       49.80455803      50.68839151      49.96065730
C       51.01924176      51.47016284      49.78118561
C       52.23596786      50.96578540      49.83041188
C       52.38447994      49.50005798      50.05252467
C       51.28602855      48.74698835      50.24431986
C       50.00383330      49.28715792      50.06363619
H       48.86593047      47.45399788      50.42300107
H       46.81564720      48.57523378      49.65085143
H       46.46815648      50.83292602      49.50217340
H       48.44878887      52.31771215      49.55776604
H       50.95431003      52.58886803      49.69977389
H       53.15081793      51.66020377      49.60927362
H       53.46911173      49.15253426      50.02735719
H       51.28582250      47.70610411      50.49855028
