18
Lattice="100.0 0.0 0.0 0.0 100.0 0.0 0.0 0.0 100.0" Properties=species:S:1:pos:R:3 Energy=-241640.5625 Energy_pyscf=-241638.24904832442 Energy_nn=-241641.015625 pbc="F F F"
C       48.87214806      48.54423190      50.12564043
C       47.61734096      49.13136203      50.07969401
C       47.50808742      50.54166639      49.82833969
C       48.66982107      51.34252886      49.60152461
C       49.93186689      50.67510823      49.82705763
C       51.11067726      51.55892425      49.84055766
C       52.26657701      51.03376960      50.05040917
C       52.49603542      49.60659262      50.16480788
C       51.42875392      48.72620194      50.11037136
C       50.05423509      49.29592239      50.04372248
H       49.06527754      47.47043357      50.39134320
H       46.71972609      48.49196123      50.34786786
H       46.47960298      50.85789008      49.85782826
H       48.53143814      52.41482774      49.56883930
H       50.76032911      52.59528786      49.66248304
H       53.15309535      51.71878585      50.10317178
H       53.56401090      49.04142361      50.25346872
H       51.53525014      47.64794177      50.20348339
