16
Lattice="100.0 0.0 0.0 0.0 100.0 0.0 0.0 0.0 100.0" Properties=species:S:1:pos:R:3 Energy=-310663.59058783285 pbc="F F F"
C       51.72453063      50.11492680      50.32948555
C       50.29323776      49.92747650      50.16754282
C       49.60773396      51.18397153      50.05947415
O       50.29693597      52.37634233      49.90226623
C       48.17304466      51.08872487      50.09987482
C       47.65676838      49.77547850      50.12478758
C       48.36558432      48.49033347      50.11541510
C       49.78969309      48.55180061      50.11510443
O       52.28179156      51.24303442      50.29629339
O       52.50918976      48.97721117      50.40888415
H       51.19340749      51.96386058      50.24261883
H       47.52333824      51.85904187      49.53052486
H       46.51697942      49.62785272      50.09730870
H       47.76897551      47.69010400      49.79030837
H       50.41167424      47.62365767      50.34112127
H       53.48302058      49.37233794      50.46947514
