16
Lattice="100.0 0.0 0.0 0.0 100.0 0.0 0.0 0.0 100.0" Properties=species:S:1:pos:R:3 Energy=-310671.5979950839 pbc="F F F"
C       51.95331624      49.83897511      50.01919481
C       50.44166080      49.81382938      49.84100784
C       49.58376439      50.95033688      49.76799498
O       49.87800574      52.28775424      49.70884919
C       48.15705844      50.79507822      49.77813299
C       47.58362088      49.52002843      49.86353411
C       48.39966769      48.41531010      49.86832728
C       49.71989022      48.57196227      49.83898143
O       52.67468585      50.85989263      50.01915846
O       52.64603917      48.67362687      50.29115081
H       50.75962338      52.57157008      50.02916126
H       47.45617530      51.66811115      49.73942657
H       46.48408140      49.44035556      49.78326840
H       47.92107411      47.42842992      49.79655714
H       50.35794493      47.79018048      49.74198016
H       53.51591860      48.87886523      50.26490177
