16
Lattice="100.0 0.0 0.0 0.0 100.0 0.0 0.0 0.0 100.0" Properties=species:S:1:pos:R:3 Energy=-310670.66280312446 pbc="F F F"
C       51.89797781      49.82962424      50.13575786
C       50.40276769      49.62845736      49.97680769
C       49.54404011      50.84742006      49.86033087
O       49.96315975      52.17301381      49.75781721
C       48.21902323      50.76651958      49.64570599
C       47.57206902      49.51731998      49.93300091
C       48.26323906      48.36871747      50.11060784
C       49.65366894      48.45090748      50.12226579
O       52.45627780      50.93977977      50.44001573
O       52.62963181      48.66871085      49.91372731
H       50.79514724      52.44010281      50.26575323
H       47.55710760      51.61105061      49.51821712
H       46.44621748      49.45334699      49.88470256
H       47.63109333      47.61534456      50.48178288
H       50.24493232      47.55989719      50.21481874
H       53.55378252      49.07318264      49.81267043
