16
Lattice="100.0 0.0 0.0 0.0 100.0 0.0 0.0 0.0 100.0" Properties=species:S:1:pos:R:3 Energy=-310678.3546820526 pbc="F F F"
C       51.90163440      49.92401954      49.96792116
C       50.39192293      49.88027263      49.77985405
C       49.52899549      51.00843189      49.70748912
O       49.80192717      52.36102191      49.63813484
C       48.07284648      50.82806022      49.73172686
C       47.48646750      49.61051700      49.80340286
C       48.31890485      48.49541199      49.80691402
C       49.68553317      48.62625371      49.76465966
O       52.59123129      50.90300862      49.95156464
O       52.56493978      48.73816269      50.23895703
H       50.74399085      52.52720427      49.79582958
H       47.36038607      51.71864176      49.67848571
H       46.42175691      49.51108914      49.74051984
H       47.84211804      47.47279573      49.61789295
H       50.19073766      47.64676876      49.62707996
H       53.57824309      49.00225688      50.38210705
