16
Lattice="100.0 0.0 0.0 0.0 100.0 0.0 0.0 0.0 100.0" Properties=species:S:1:pos:R:3 Energy=-310664.38829112425 pbc="F F F"
C       51.80629692      50.02881453      49.96439788
C       50.30637793      49.87307936      49.90082695
C       49.54376909      50.97889146      49.72775510
O       49.96126297      52.26997899      49.77511110
C       48.15967597      50.90480952      49.50794730
C       47.58588856      49.71219759      49.61252865
C       48.30029789      48.61787504      49.92048822
C       49.67215474      48.55165508      50.07609108
O       52.43483262      51.13110912      50.03185481
O       52.61116798      48.77590170      49.85436058
H       50.94934542      52.35331229      49.86921792
H       47.70572458      51.83805853      49.72321502
H       46.53099417      49.69224224      49.58499041
H       47.72606673      47.66643156      50.08748152
H       50.14814180      47.64668771      50.49205270
H       53.46900583      48.76569987      50.39176045
