16
Lattice="100.0 0.0 0.0 0.0 100.0 0.0 0.0 0.0 100.0" Properties=species:S:1:pos:R:3 Energy=-310672.6157469776 pbc="F F F"
C       51.78910066      50.21797152      50.05049081
C       50.32490140      50.00517847      49.95398006
C       49.63975126      51.29750299      49.81386570
O       50.30796266      52.49607025      49.69032037
C       48.16275841      51.11915647      49.90321686
C       47.64276822      49.78178519      49.87294888
C       48.42684152      48.59586535      49.81773732
C       49.77989592      48.73827468      49.99664876
O       52.38791235      51.29569785      50.06864216
O       52.37934790      49.07894854      50.18810828
H       51.32945834      52.31090901      49.82493534
H       47.54761867      52.01555233      50.18514356
H       46.58590637      49.68197397      49.91916234
H       47.87353065      47.50392975      49.83831407
H       50.57583386      47.97632770      49.97067128
H       53.41409363      49.38855092      50.30967963
