16
Lattice="100.0 0.0 0.0 0.0 100.0 0.0 0.0 0.0 100.0" Properties=species:S:1:pos:R:3 Energy=-310689.3123427459 pbc="F F F"
C       51.78159787      50.12343108      50.22235063
C       50.34241865      50.04413159      50.18910906
C       49.59997912      51.27321818      49.98224016
O       50.28857856      52.39914889      50.10287055
C       48.14155710      51.07731360      49.83036341
C       47.64221389      49.75219795      49.92141129
C       48.42513469      48.57806989      50.26119710
C       49.78850964      48.76269849      50.31862109
O       52.34112911      51.21023592      50.29692140
O       52.50019943      49.02502212      50.19390462
H       51.30643520      52.11410684      50.15249338
H       47.51661239      51.98000019      49.60118190
H       46.55577137      49.71325896      49.73451371
H       47.87308832      47.60085111      50.39881810
H       50.50551079      47.87406767      50.39615090
H       53.44422863      49.34721919      50.25410217
