16
Lattice="100.0 0.0 0.0 0.0 100.0 0.0 0.0 0.0 100.0" Properties=species:S:1:pos:R:3 Energy=-310671.68849873217 pbc="F F F"
C       51.95579884      49.99327327      49.81347193
C       50.45240743      49.89718945      49.69572138
C       49.57457086      51.05098819      49.65964698
O       49.88188135      52.39371924      49.71066736
C       48.19907622      50.87311468      49.53586202
C       47.58389535      49.63635667      49.62666091
C       48.38100013      48.51787223      49.82653202
C       49.81996513      48.69395680      49.83828855
O       52.63064021      50.99811264      49.87887205
O       52.53448865      48.70856775      50.10418317
H       50.79722792      52.52412680      50.07857024
H       47.53274607      51.73008405      49.45007417
H       46.44772215      49.62523599      49.72398944
H       48.00928474      47.47587320      49.92729245
H       50.39252166      47.88581232      50.03437707
H       53.55227785      48.83262734      50.54992583
