16
Lattice="100.0 0.0 0.0 0.0 100.0 0.0 0.0 0.0 100.0" Properties=species:S:1:pos:R:3 Energy=-310662.7912562046 pbc="F F F"
C       52.03372515      50.07667888      49.77402971
C       50.46426032      49.83448134      49.59026801
C       49.73491002      51.04076367      49.65018433
O       50.21504881      52.33691006      49.63196522
C       48.27209750      50.96288697      49.72999340
C       47.71195942      49.72306525      49.77862589
C       48.40854196      48.55727569      49.52975400
C       49.75891117      48.54049886      49.27094597
O       52.62923446      51.07692647      49.36606675
O       52.43080421      49.17008112      50.62015395
H       51.01393484      52.48502292      49.08708866
H       47.76582169      51.88658412      50.08483678
H       46.62622424      49.63704210      50.02137155
H       47.93276233      47.51497708      49.54054438
H       50.21158904      47.62334268      49.44098268
H       53.37377576      49.22869371      50.91291134
