16
Lattice="100.0 0.0 0.0 0.0 100.0 0.0 0.0 0.0 100.0" Properties=species:S:1:pos:R:3 Energy=-310678.7166396929 pbc="F F F"
C       51.80566750      50.20081642      50.11716430
C       50.44323751      49.97795608      49.93137028
C       49.68944456      51.17157152      49.77417717
O       50.31780600      52.33555068      49.74515257
C       48.34668072      51.10527744      49.90418712
C       47.69417427      49.81977116      49.93962759
C       48.42919919      48.60481430      49.87797678
C       49.81456094      48.75572006      49.88897557
O       52.36948110      51.32369442      50.06574056
O       52.49757524      49.05418479      50.22291280
H       51.35434783      52.13783667      50.03209696
H       47.69540161      51.91212445      50.25484743
H       46.57415192      49.90224445      50.03927410
H       47.79593337      47.66444932      50.00840410
H       50.47664102      47.80568514      49.79014252
H       53.42584808      49.32902709      50.25270453
