16
Lattice="100.0 0.0 0.0 0.0 100.0 0.0 0.0 0.0 100.0" Properties=species:S:1:pos:R:3 Energy=-310674.6600915088 pbc="F F F"
C       51.82743034      50.31707560      50.26715912
C       50.32537236      50.14069531      50.22946533
C       49.59433542      51.30841211      50.12837797
O       50.25677957      52.41966864      49.98397222
C       48.18876832      51.16188156      49.97464520
C       47.52614727      49.96252651      49.90472826
C       48.35229828      48.74972084      50.02634589
C       49.74906033      48.86018177      50.21553826
O       52.47771265      51.34420581      50.05984943
O       52.57796926      49.23425471      50.37370957
H       51.30620928      52.10224902      49.78849491
H       47.68005216      52.12125449      49.62629043
H       46.51768901      49.81069939      49.68605799
H       47.94777011      47.58033136      49.87885827
H       50.36364606      47.98064482      50.23265128
H       53.48231099      49.69039152      50.27782591
