16
Lattice="100.0 0.0 0.0 0.0 100.0 0.0 0.0 0.0 100.0" Properties=species:S:1:pos:R:3 Energy=-310677.2338624613 pbc="F F F"
C       51.84188364      50.01098626      50.26255323
C       50.33295304      49.90541594      50.02597573
C       49.51251248      51.08957897      49.88697745
O       49.92272516      52.41989875      49.56362079
C       48.09534038      50.92214017      50.08911082
C       47.50962099      49.69593202      50.17175812
C       48.29338661      48.56046106      49.96159333
C       49.71840958      48.62005033      49.99307867
O       52.44390019      51.02558644      50.50521660
O       52.59478780      48.81435422      50.23296638
H       50.92220308      52.42984362      49.46422185
H       47.47820727      51.74674595      50.14370458
H       46.48688376      49.58847859      50.26326090
H       47.85907057      47.57015638      50.05480121
H       50.33177972      47.65705109      50.20766369
H       53.51311624      49.05243873      50.53577815
