16
Lattice="100.0 0.0 0.0 0.0 100.0 0.0 0.0 0.0 100.0" Properties=species:S:1:pos:R:3 Energy=-310669.38499062014 pbc="F F F"
C       51.80581166      50.21015560      50.14568320
C       50.42794298      49.98387337      50.02028748
C       49.63733944      51.12226894      49.98220031
O       50.32188000      52.23513690      49.98741105
C       48.22222167      51.09695441      49.81256262
C       47.60810919      49.82978758      49.65394739
C       48.41097442      48.70324920      50.18735230
C       49.80196784      48.74923242      50.19505699
O       52.43257733      51.28119782      50.12009990
O       52.62051583      49.07888492      50.09916712
H       51.33613419      52.00028001      49.93175736
H       47.70668640      52.09030160      49.68061211
H       46.45063997      49.78534963      49.84134357
H       47.86207872      47.76486310      50.30153801
H       50.49707779      47.93572052      50.33871845
H       53.54936003      49.46961672      50.34605261
