16
Lattice="100.0 0.0 0.0 0.0 100.0 0.0 0.0 0.0 100.0" Properties=species:S:1:pos:R:3 Energy=-310681.94904098054 pbc="F F F"
C       51.83386692      50.14444611      50.00649681
C       50.43469035      49.94951940      49.83196717
C       49.71912981      51.26534723      49.78882090
O       50.38869274      52.40896913      49.73759024
C       48.31299045      51.06722051      49.91745701
C       47.74359648      49.77702747      49.88533682
C       48.48138764      48.56976812      49.76864831
C       49.84642644      48.65181169      49.79292934
O       52.37811271      51.25681529      49.84357340
O       52.50972043      49.08040452      50.40189097
H       51.35012106      51.95960591      49.52540178
H       47.61012150      51.92053585      50.02095267
H       46.63788198      49.69535125      49.92142473
H       48.00582403      47.59103087      49.80803738
H       50.42251954      47.80796512      49.81116977
H       53.36211802      49.42744715      50.47459822
