16
Lattice="100.0 0.0 0.0 0.0 100.0 0.0 0.0 0.0 100.0" Properties=species:S:1:pos:R:3 Energy=-310664.50081932533 pbc="F F F"
C       51.97419677      49.99076703      50.17099180
C       50.58282629      49.99552904      50.01200108
C       49.62334044      51.05379798      49.81062733
O       49.87395180      52.41411871      49.97650671
C       48.25740969      50.82863315      49.77599959
C       47.72791051      49.59362310      49.94586221
C       48.59769369      48.46697326      49.89373483
C       49.95089336      48.74835632      49.91879418
O       52.74200527      50.85949833      49.78900791
O       52.39440501      48.62788147      50.49811691
H       50.84449422      52.53405150      50.24201834
H       47.65883333      51.73808736      49.50188309
H       46.64270072      49.39203288      49.95969735
H       48.18849222      47.46594850      49.96108266
H       50.59393219      47.98238517      50.27743335
H       53.35729928      48.77355541      50.41150578
