16
Lattice="100.0 0.0 0.0 0.0 100.0 0.0 0.0 0.0 100.0" Properties=species:S:1:pos:R:3 Energy=-310676.27013652097 pbc="F F F"
C       51.89121724      50.16778231      49.99102070
C       50.37033743      49.86404062      49.88121720
C       49.70290326      51.13068731      49.92351005
O       50.33058777      52.27117961      49.85631232
C       48.23212929      51.11410699      49.73421181
C       47.53349725      49.87550178      49.71289003
C       48.29979220      48.61246714      49.94106926
C       49.68057785      48.61899897      49.91855683
O       52.43236799      51.32673653      49.89777875
O       52.75553470      49.18758764      50.24191570
H       51.36727931      52.08842020      50.03395988
H       47.67828033      52.12166977      49.75039213
H       46.40255135      49.86816050      49.73398984
H       47.58730034      47.77704037      50.17102909
H       50.36354226      47.72882039      50.08799875
H       53.59744865      49.61869158      50.28710997
