16
Lattice="100.0 0.0 0.0 0.0 100.0 0.0 0.0 0.0 100.0" Properties=species:S:1:pos:R:3 Energy=-310668.2402616051 pbc="F F F"
C       51.88907573      50.08376646      50.19307941
C       50.40834079      49.99881960      50.10104576
C       49.57412408      51.11524338      50.03500961
O       49.95525418      52.49364175      49.98599467
C       48.25218775      50.91925714      50.00814396
C       47.61349044      49.64101585      49.80581734
C       48.39211130      48.51162605      50.12189405
C       49.70120065      48.71452271      50.20618147
O       52.62278176      51.06424475      50.10026681
O       52.43147607      48.81651267      50.41660500
H       50.89842286      52.54053915      50.28439654
H       47.57612187      51.87604202      49.98410258
H       46.57950071      49.71752390      49.49503031
H       48.07803215      47.45946085      50.31042713
H       50.47685495      48.03841834      50.50496969
H       53.42049929      48.77240290      50.10535814
