16
Lattice="100.0 0.0 0.0 0.0 100.0 0.0 0.0 0.0 100.0" Properties=species:S:1:pos:R:3 Energy=-310666.9928420716 pbc="F F F"
C       51.84354348      50.28019855      50.24748257
C       50.35480485      50.15703075      50.19600043
C       49.55229215      51.27340218      49.89748614
O       50.16964898      52.34783536      49.83245805
C       48.12577216      51.18477544      49.79995965
C       47.58413130      49.88355696      50.02613438
C       48.39344830      48.68948685      50.02088220
C       49.78673649      48.90620590      50.16429334
O       52.54487192      51.34613871      50.34306269
O       52.45621864      49.06112978      50.05278711
H       51.11747238      52.14509346      49.91703679
H       47.60736668      52.15973516      49.65693731
H       46.55984375      49.83556601      49.92489196
H       48.16333576      47.65216464      50.30050854
H       50.61863335      48.24383556      50.14452027
H       53.44015625      49.35244841      50.14641424
