16
Lattice="100.0 0.0 0.0 0.0 100.0 0.0 0.0 0.0 100.0" Properties=species:S:1:pos:R:3 Energy=-310658.9205939629 pbc="F F F"
C       51.84860296      49.94608945      50.28356622
C       50.31780014      49.80645419      50.53693248
C       49.61318649      50.90627134      50.09831017
O       49.94362731      52.30969793      50.04772283
C       48.29236989      50.75981947      49.75457571
C       47.53105655      49.57437156      49.88818492
C       48.15696777      48.44671501      50.33986231
C       49.56722459      48.54909104      50.50720767
O       52.43548038      51.00462593      50.52453425
O       52.48892361      48.86023123      49.93973255
H       50.87877432      52.58747798      50.16567491
H       47.76257832      51.65898198      49.55745911
H       46.57443681      49.40552791      49.46306752
H       47.90225762      47.41252202      50.43223890
H       50.18592929      47.65155389      50.38698779
H       53.42556319      49.29664911      49.81715352
