16
Lattice="100.0 0.0 0.0 0.0 100.0 0.0 0.0 0.0 100.0" Properties=species:S:1:pos:R:3 Energy=-310671.52218686725 pbc="F F F"
C       51.95626539      49.98384532      50.17660100
C       50.50754759      50.00096933      49.95926440
C       49.58333584      51.09345435      49.84190360
O       49.87566119      52.41106105      49.98178689
C       48.20927377      50.85550679      49.77056789
C       47.66578681      49.55435726      49.92059383
C       48.54325101      48.48425715      49.93809389
C       49.89372023      48.76209244      49.90343304
O       52.66404209      50.83951803      49.78648300
O       52.39684542      48.67761087      50.50275102
H       50.76389098      52.58444654      50.23572662
H       47.63555716      51.72861249      49.49724898
H       46.63193863      49.29197480      49.99912560
H       48.25321856      47.41555346      50.00065446
H       50.51155254      47.88879354      50.21853369
H       53.36806137      48.73076749      50.33859783
