16
Lattice="100.0 0.0 0.0 0.0 100.0 0.0 0.0 0.0 100.0" Properties=species:S:1:pos:R:3 Energy=-310659.0370873825 pbc="F F F"
C       52.03691586      50.07036733      49.74836419
C       50.47089363      49.79557987      49.57954805
C       49.72226892      51.00278986      49.64101070
O       50.19443391      52.32324013      49.60890563
C       48.34188845      50.94747824      49.71007032
C       47.71439851      49.71989784      49.78005976
C       48.41276425      48.52288979      49.51756663
C       49.74706331      48.52100108      49.25594911
O       52.65568876      51.08521221      49.38368545
O       52.41189238      49.14382040      50.59952908
H       50.99153600      52.48098923      49.03519614
H       47.82482047      51.84211126      50.07292207
H       46.68723971      49.51528554      50.03382070
H       47.94023016      47.57083337      49.57231375
H       50.41856134      47.51901077      49.26078581
H       53.31276029      49.13185023      50.96480386
