16
Lattice="100.0 0.0 0.0 0.0 100.0 0.0 0.0 0.0 100.0" Properties=species:S:1:pos:R:3 Energy=-310677.53391599836 pbc="F F F"
C       51.80486363      50.20552478      50.07364016
C       50.39492622      50.06602018      50.04388845
C       49.67839822      51.22138304      49.70965130
O       50.32060631      52.36360794      49.44040716
C       48.21026570      51.13314665      49.63035762
C       47.61851632      49.87517990      49.69630294
C       48.38189657      48.61987490      49.92645405
C       49.80468080      48.76051637      50.09852582
O       52.31465964      51.27063720      50.40539486
O       52.48343075      49.18365665      49.47865138
H       51.25231005      52.21901859      49.74477509
H       47.65379156      52.00219745      49.47938354
H       46.56844609      49.96847906      49.61109687
H       47.93062462      47.63639206      50.29951693
H       50.33844246      47.85327982      50.55959284
H       53.43155391      49.37693577      49.51260731
