16
Lattice="100.0 0.0 0.0 0.0 100.0 0.0 0.0 0.0 100.0" Properties=species:S:1:pos:R:3 Energy=-310678.9039775058 pbc="F F F"
C       51.86981414      49.98896634      49.95008957
C       50.38568793      49.89356565      49.98503175
C       49.56104157      51.03096749      49.86531140
O       50.00076482      52.28843609      50.09096771
C       48.21781300      50.88094551      49.65646801
C       47.67093346      49.59332801      49.66606094
C       48.48909574      48.47985362      49.83673494
C       49.87727117      48.63466045      49.89638992
O       52.50673632      50.86946705      49.44162459
O       52.36874910      48.79883627      50.55837541
H       50.83424785      52.55775252      49.66893801
H       47.54125426      51.66234176      49.50485601
H       46.60968062      49.40353666      49.50228307
H       48.09680587      47.44224748      49.79827568
H       50.60000463      47.83138946      49.78258254
H       53.39031938      48.83467046      50.32628083
