16
Lattice="100.0 0.0 0.0 0.0 100.0 0.0 0.0 0.0 100.0" Properties=species:S:1:pos:R:3 Energy=-310662.4702275892 pbc="F F F"
C       51.86861390      50.09020043      50.05056386
C       50.37472131      49.93624784      50.07975729
C       49.59771160      51.18203285      49.88749520
O       50.05370850      52.37256255      49.46182506
C       48.19793324      50.94575333      49.58586193
C       47.64532467      49.68609174      49.54105078
C       48.38165618      48.57395674      49.85854801
C       49.67081994      48.74094518      50.35135504
O       52.42469270      51.14564542      50.32724816
O       52.40384766      48.90485214      49.44840338
H       50.99408266      52.42865117      49.54619221
H       47.39675800      51.65566934      49.64676415
H       46.64530037      49.52081686      49.32393805
H       47.87827745      47.57134883      49.72958690
H       50.28722235      47.98422714      50.88080309
H       53.35469963      49.02102548      49.11919691
