16
Lattice="100.0 0.0 0.0 0.0 100.0 0.0 0.0 0.0 100.0" Properties=species:S:1:pos:R:3 Energy=-310674.0096259404 pbc="F F F"
C       51.93134780      49.93434972      50.19118956
C       50.44578403      49.85042187      50.33086347
C       49.67109625      50.95368318      49.95488491
O       50.04744138      52.22292957      49.73760383
C       48.28718238      50.80951862      49.66996605
C       47.71336462      49.56099001      49.78886442
C       48.58240251      48.49205102      50.03509519
C       49.87415159      48.58185378      50.37950365
O       52.56171719      50.92930235      50.38547495
O       52.32150872      48.76055990      49.73599343
H       50.88254634      52.47685932      50.23629650
H       47.76404267      51.70892368      49.27021036
H       46.70088125      49.28234003      49.68273095
H       48.10182162      47.52314068      50.11843294
H       50.50070881      47.75685999      50.72978964
H       53.29911875      48.56097209      49.58925432
