16
Lattice="100.0 0.0 0.0 0.0 100.0 0.0 0.0 0.0 100.0" Properties=species:S:1:pos:R:3 Energy=-310677.16216216265 pbc="F F F"
C       51.81910875      50.13716032      50.06436983
C       50.41027522      49.99713024      50.06512922
C       49.65250327      51.14889947      49.91946379
O       50.18908168      52.37801378      50.04306076
C       48.31959859      51.01975764      49.52242065
C       47.64836206      49.75822557      49.62015370
C       48.34948160      48.57803333      50.02252679
C       49.72987675      48.67599461      50.37911096
O       52.31405570      51.23893799      49.96930209
O       52.47492626      48.98219493      49.92728627
H       51.13589294      52.12137390      50.31407743
H       47.91010975      51.93256817      49.27970686
H       46.53308207      49.70453056      49.46592135
H       47.81603011      47.62198622      50.17464461
H       50.42593291      47.83933658      50.72029314
H       53.46691793      49.06244903      49.74874027
