16
Lattice="100.0 0.0 0.0 0.0 100.0 0.0 0.0 0.0 100.0" Properties=species:S:1:pos:R:3 Energy=-310669.94639392325 pbc="F F F"
C       52.07396213      49.97523393      49.76629344
C       50.52439584      49.85430911      49.54648494
C       49.64188165      50.97433741      49.51567488
O       50.08226134      52.26811102      49.73377405
C       48.27020352      50.81228080      49.59311649
C       47.62400631      49.53398388      49.59421520
C       48.50150720      48.44602699      49.59689921
C       49.88140940      48.60021018      49.47018573
O       52.85500917      50.79362491      49.37235799
O       52.47546948      48.90706512      50.43866110
H       51.01385297      52.55488790      49.98755629
H       47.78968825      51.83336755      49.58352081
H       46.55052302      49.72072318      49.59525902
H       48.09438533      47.44511210      49.54859652
H       50.46022044      47.73395731      49.56892558
H       53.44947698      48.98601846      50.62764201
