16
Lattice="100.0 0.0 0.0 0.0 100.0 0.0 0.0 0.0 100.0" Properties=species:S:1:pos:R:3 Energy=-310671.17894292925 pbc="F F F"
C       51.95154178      49.93637597      50.31552614
C       50.43082554      49.90779365      50.16860813
C       49.57448908      51.04264410      50.18304523
O       49.94982815      52.30208520      49.79711997
C       48.18740816      50.85443730      50.17654806
C       47.66088883      49.57266789      50.02678074
C       48.49529242      48.44905365      50.11496901
C       49.86303567      48.64606869      50.27356984
O       52.67761522      50.95881538      50.43737715
O       52.43352491      48.66902764      50.38742861
H       50.89986758      52.39187656      49.51548228
H       47.55817621      51.70874205      50.21473833
H       46.61056156      49.29111370      50.27155507
H       47.98156107      47.60812344      50.17383266
H       50.43813548      47.73995704      50.38064250
H       53.38943844      48.87583290      50.48451772
