16
Lattice="100.0 0.0 0.0 0.0 100.0 0.0 0.0 0.0 100.0" Properties=species:S:1:pos:R:3 Energy=-310672.38362041366 pbc="F F F"
C       51.85573424      49.87991937      50.18658333
C       50.34026816      49.78866267      50.07250077
C       49.58518279      50.98703009      49.82150641
O       49.94318625      52.26883962      49.85761262
C       48.16139659      50.81106498      49.74298562
C       47.64850118      49.55892759      49.97100506
C       48.36607500      48.33457188      50.09368553
C       49.75758272      48.53061716      50.13770898
O       52.42879326      51.01219390      50.32938948
O       52.47591863      48.55484909      50.06461958
H       50.84591887      52.59211218      49.88495530
H       47.74815934      51.83934259      49.67061052
H       46.55061032      49.40149209      49.97515813
H       47.87468843      47.40788782      50.27081985
H       50.47780177      47.73858820      50.10518238
H       53.44938968      48.76524444      50.13000075
