16
Lattice="100.0 0.0 0.0 0.0 100.0 0.0 0.0 0.0 100.0" Properties=species:S:1:pos:R:3 Energy=-310670.02374557225 pbc="F F F"
C       51.75520180      50.23014776      50.20523622
C       50.40320607      50.04916198      50.29915609
C       49.62345732      51.23739687      49.97107513
O       50.24122971      52.42596344      49.88856696
C       48.23101349      51.08252425      50.03939236
C       47.62094925      49.89430111      49.87185156
C       48.41990216      48.62561183      49.79489297
C       49.73789611      48.81896986      50.13398344
O       52.39281066      51.27684754      49.85914938
O       52.55677588      49.08052409      50.39762328
H       51.34408421      52.04610023      49.84443329
H       47.83537378      52.09461631      50.20831259
H       46.57088266      50.00764223      49.60237672
H       48.07936419      47.57403656      49.65313885
H       50.42855741      47.97190749      50.03225466
H       53.42911734      49.41542613      50.12541992
