16
Lattice="100.0 0.0 0.0 0.0 100.0 0.0 0.0 0.0 100.0" Properties=species:S:1:pos:R:3 Energy=-310664.79196971655 pbc="F F F"
C       51.82532790      50.28676533      50.23978505
C       50.32950617      50.14969575      50.19728196
C       49.53493294      51.26820953      49.88884947
O       50.14550209      52.35324642      49.82832348
C       48.10338037      51.20129507      49.79603269
C       47.57018739      49.88699430      50.02333039
C       48.37281754      48.69775690      50.01825466
C       49.76637928      48.90974667      50.16387262
O       52.52796519      51.35628918      50.34980432
O       52.43362171      49.06760100      50.04286050
H       51.10751032      52.15063992      49.94179678
H       47.57443953      52.14448331      49.65019568
H       46.56122328      49.86351519      49.91342224
H       48.11341867      47.64675358      50.26745160
H       50.61413589      48.24359125      50.14095076
H       53.43877672      49.37971481      50.15483197
