16
Lattice="100.0 0.0 0.0 0.0 100.0 0.0 0.0 0.0 100.0" Properties=species:S:1:pos:R:3 Energy=-310664.26299316436 pbc="F F F"
C       52.01968261      50.05626588      50.10795540
C       50.35027361      49.89340233      50.12897486
C       49.61424394      51.02355129      50.00145200
O       50.10017752      52.35083265      49.92331533
C       48.13156944      50.89230006      49.87358815
C       47.55839249      49.63030501      49.86814921
C       48.45636507      48.53205593      49.93426317
C       49.80211580      48.67641740      50.16463173
O       52.58162587      51.14536314      50.03670125
O       52.48788308      48.69168133      50.35362840
H       51.11078656      52.45546340      49.91576364
H       47.50937773      51.80457694      49.86984027
H       46.55292321      49.36007057      49.49252124
H       47.97000941      47.54453660      49.84461817
H       50.44254568      47.74368805      50.15861586
H       53.44707679      48.67296266      50.50747876
