16
Lattice="100.0 0.0 0.0 0.0 100.0 0.0 0.0 0.0 100.0" Properties=species:S:1:pos:R:3 Energy=-310678.26327637135 pbc="F F F"
C       51.82794064      50.13773991      50.07723426
C       50.42345820      49.99673929      50.07238094
C       49.66216297      51.14961211      49.92750818
O       50.20481912      52.37545623      50.05303781
C       48.33257723      51.02148009      49.53172308
C       47.65753812      49.75583163      49.62705184
C       48.36021348      48.57464342      50.02881619
C       49.74483933      48.67826536      50.38932927
O       52.32897958      51.23691218      49.97263721
O       52.49488693      48.98015520      49.93591980
H       51.14706296      52.12500257      50.30602981
H       47.90361983      51.92972119      49.27724318
H       46.53390223      49.71522995      49.48279613
H       47.82668869      47.62454377      50.17720042
H       50.43749864      47.85316617      50.72275682
H       53.46609777      49.05416496      49.76591112
