16
Lattice="100.0 0.0 0.0 0.0 100.0 0.0 0.0 0.0 100.0" Properties=species:S:1:pos:R:3 Energy=-310676.8137454997 pbc="F F F"
C       51.98861565      49.98569543      50.04430455
C       50.48769699      49.90224487      49.85345366
C       49.62214201      51.03768030      49.75637023
O       49.96483512      52.37069878      49.75525842
C       48.23304913      50.85720744      49.65323235
C       47.58940802      49.59925564      49.70757748
C       48.44667716      48.54724627      49.93486556
C       49.81358932      48.70081185      49.89480153
O       52.67872642      50.98198278      49.95611560
O       52.62815425      48.72773863      50.11319471
H       50.87074106      52.42440411      50.21963182
H       47.68809302      51.81439939      49.67183742
H       46.54239445      49.39749867      49.56430210
H       48.06268688      47.57559589      49.95033958
H       50.37468295      47.84564926      50.03313074
H       53.45760555      48.88851539      50.43569790
