16
Lattice="100.0 0.0 0.0 0.0 100.0 0.0 0.0 0.0 100.0" Properties=species:S:1:pos:R:3 Energy=-310676.2875391477 pbc="F F F"
C       51.94380827      49.93666360      50.03152112
C       50.44426189      49.94668202      50.01151686
C       49.54332962      51.05613991      49.89013228
O       49.86541214      52.36792786      49.91453305
C       48.18781421      50.82638943      49.72099555
C       47.64213156      49.55517670      49.65655118
C       48.49122221      48.48755583      49.87523625
C       49.85910486      48.69020163      49.96613108
O       52.61738705      50.87029426      49.67531462
O       52.40970083      48.65704573      50.37754540
H       50.82587845      52.55681947      49.95913812
H       47.56802395      51.70110835      49.63945690
H       46.63523690      49.08897141      49.62245460
H       48.23071520      47.44318053      49.90323465
H       50.48650393      47.81881964      49.80587409
H       53.36476310      48.48591826      50.17562986
