16
Lattice="100.0 0.0 0.0 0.0 100.0 0.0 0.0 0.0 100.0" Properties=species:S:1:pos:R:3 Energy=-310671.0431159315 pbc="F F F"
C       51.92058611      50.08704650      50.20275729
C       50.46326970      49.99559270      50.07591217
C       49.70851744      51.13901446      49.89640521
O       50.18026294      52.44030420      49.74366659
C       48.35735947      50.86250935      49.77307509
C       47.71064150      49.66476999      49.89497093
C       48.53980399      48.51465637      50.24224010
C       49.84998725      48.76368795      50.16316136
O       52.55881199      51.08410621      50.53267954
O       52.45863417      48.83842971      49.88735547
H       51.12362878      52.34413170      49.97669602
H       47.88435245      51.74164401      49.46732046
H       46.57446039      49.55394654      49.95094739
H       48.01187334      47.55969580      50.36916894
H       50.63164103      48.04879605      50.18753047
H       53.42553961      48.57983472      49.87324184
