16
Lattice="100.0 0.0 0.0 0.0 100.0 0.0 0.0 0.0 100.0" Properties=species:S:1:pos:R:3 Energy=-310677.8887588836 pbc="F F F"
C       51.95786484      50.13874099      49.89756772
C       50.54783414      49.87263518      49.69926388
C       49.73081200      51.06635305      49.73015256
O       50.28540949      52.34186672      49.81299702
C       48.27401561      51.03793721      49.71936574
C       47.56681264      49.84261262      49.74657824
C       48.40027974      48.61322491      49.90938493
C       49.82718082      48.66548672      49.71875326
O       52.45154234      51.22861432      49.84897834
O       52.64972621      49.08193284      50.31247808
H       51.26391016      52.00443335      49.58880529
H       47.68170725      52.00778518      49.70644732
H       46.47431860      49.88044076      49.55702801
H       47.95164843      47.65813328      49.95615661
H       50.38395222      47.78989533      49.66961400
H       53.52568140      49.45648356      50.44297199
