16
Lattice="100.0 0.0 0.0 0.0 100.0 0.0 0.0 0.0 100.0" Properties=species:S:1:pos:R:3 Energy=-310659.39570903813 pbc="F F F"
C       51.92734437      50.23106478      49.80009210
C       50.44076194      50.08771903      49.64349070
C       49.65706881      51.20463717      49.84005204
O       50.33923758      52.40843692      49.63379741
C       48.23754413      51.11946396      49.64710521
C       47.70145638      49.85528157      49.57717197
C       48.46630619      48.60141712      49.66290181
C       49.78595066      48.76939802      49.76076792
O       52.59057835      51.27739011      49.64155605
O       52.52495738      49.14488012      50.23058389
H       51.24814735      51.92804908      49.77626759
H       47.69060213      52.00100165      49.51252251
H       46.62199610      49.95539771      49.53288106
H       48.09131963      47.59156308      49.79685140
H       50.50218762      48.11091898      50.18168651
H       53.37800390      49.45149844      50.48747749
