16
Lattice="100.0 0.0 0.0 0.0 100.0 0.0 0.0 0.0 100.0" Properties=species:S:1:pos:R:3 Energy=-310673.5031888866 pbc="F F F"
C       51.81757767      50.01663438      50.10765204
C       50.38810218      49.83849264      50.24108193
C       49.59897567      51.12073919      50.07064917
O       50.11603188      52.35021870      50.07125524
C       48.22733361      51.00765447      49.84165560
C       47.58549243      49.76556726      49.73980666
C       48.25780216      48.55138388      49.98312170
C       49.71253013      48.62509068      50.22906828
O       52.31410681      51.14744313      49.84512741
O       52.58249522      49.05619238      50.37764348
H       51.35095794      51.94960389      50.07690609
H       47.66645050      52.02613621      49.76108891
H       46.48516588      49.76448552      49.51241395
H       47.65360034      47.64978130      49.75455990
H       50.16135154      47.68804622      50.42534889
H       53.51483412      49.41778512      50.48758605
