16
Lattice="100.0 0.0 0.0 0.0 100.0 0.0 0.0 0.0 100.0" Properties=species:S:1:pos:R:3 Energy=-310676.9084354381 pbc="F F F"
C       51.91273166      49.97415057      50.00143968
C       50.44405993      49.91562957      49.89028102
C       49.55251627      51.02506015      49.80502218
O       50.02901379      52.35635616      49.77674715
C       48.16228770      50.87149220      49.92693346
C       47.66109057      49.57481892      49.71979358
C       48.54031914      48.43152288      49.83206176
C       49.87352837      48.59756686      49.85269024
O       52.69106946      50.91565816      49.79216465
O       52.41838322      48.71178450      50.44791490
H       50.99778554      52.51586033      49.74985677
H       47.65201904      51.77583665      50.07208589
H       46.63240657      49.36618656      49.56145480
H       48.13532704      47.48413967      49.55208510
H       50.55499555      47.80589741      49.58822149
H       53.36759343      48.72948576      50.21954762
