16
Lattice="100.0 0.0 0.0 0.0 100.0 0.0 0.0 0.0 100.0" Properties=species:S:1:pos:R:3 Energy=-310678.0037431837 pbc="F F F"
C       52.02498430      50.07291099      49.86557267
C       50.47478779      49.90972640      49.79232891
C       49.59639529      51.07381216      49.74769134
O       50.11090545      52.31914754      49.83686823
C       48.18385679      50.93754578      49.70919691
C       47.59393107      49.70628391      49.70884736
C       48.40056252      48.54520640      49.71711880
C       49.75823130      48.71670632      49.70649663
O       52.75332412      51.03475065      49.58805902
O       52.61907269      48.98509954      50.48610136
H       51.06803164      52.48665115      49.51389864
H       47.53260439      51.93576622      49.73305409
H       46.47852746      49.70974540      49.59523517
H       47.99891052      47.51334885      49.77090809
H       50.29497372      47.72885358      49.64197430
H       53.52147254      48.95196552      50.08565282
