16
Lattice="100.0 0.0 0.0 0.0 100.0 0.0 0.0 0.0 100.0" Properties=species:S:1:pos:R:3 Energy=-310669.02556455065 pbc="F F F"
C       51.90511215      49.91779209      50.11600271
C       50.45125281      49.94198537      49.98244084
C       49.60375786      51.10793143      49.76564334
O       49.95639156      52.38243631      49.54893833
C       48.23131333      50.90445753      49.64243259
C       47.70742615      49.66807427      49.81597619
C       48.50293032      48.56064743      50.08862861
C       49.92807380      48.69506059      50.18129760
O       52.45792338      50.94121200      50.56651558
O       52.49855250      48.80024191      49.63766005
H       50.87372663      52.46437273      49.45752309
H       47.56717622      51.67968105      49.48465634
H       46.70430252      49.49524715      49.43348442
H       48.11075019      47.53562727      50.21448145
H       50.44111669      47.82109320      50.49123285
H       53.29569748      48.80962227      50.11011647
