16
Lattice="100.0 0.0 0.0 0.0 100.0 0.0 0.0 0.0 100.0" Properties=species:S:1:pos:R:3 Energy=-310675.01189601514 pbc="F F F"
C       51.95802149      49.93900065      50.04226475
C       50.46027709      49.95035155      50.01125368
C       49.55466170      51.06193747      49.89632229
O       49.87370979      52.37490401      49.91795432
C       48.19482025      50.82774941      49.72969953
C       47.65251393      49.55879070      49.66315979
C       48.50488088      48.49139972      49.88428103
C       49.87103116      48.69289803      49.97320725
O       52.62645311      50.87124282      49.68564878
O       52.41552804      48.65877417      50.38120276
H       50.84550254      52.54807533      49.95857001
H       47.58202869      51.67929664      49.64051577
H       46.63645925      49.07603352      49.61879724
H       48.24489896      47.45192467      49.91886946
H       50.49874217      47.82888532      49.81307164
H       53.36354075      48.48813910      50.19199638
