16
Lattice="100.0 0.0 0.0 0.0 100.0 0.0 0.0 0.0 100.0" Properties=species:S:1:pos:R:3 Energy=-310677.9218389215 pbc="F F F"
C       51.82915150      50.14412309      49.98728169
C       50.44823507      49.91400504      49.78374735
C       49.73118378      51.20501814      49.79343691
O       50.34828091      52.35064240      49.78485184
C       48.27671622      51.02917490      49.69974451
C       47.64579312      49.84029444      49.63359454
C       48.39308695      48.60732504      49.83629833
C       49.80474001      48.66490299      50.01737161
O       52.39568034      51.23708201      49.85948105
O       52.67384743      49.12526915      50.07510967
H       51.39363695      52.11819040      49.86014870
H       47.66254959      52.00638819      49.66791956
H       46.51232774      49.83235280      49.52858536
H       47.91376724      47.64935760      50.21455626
H       50.30422866      47.81453543      50.47141464
H       53.48767226      49.42855988      49.70991395
