16
Lattice="100.0 0.0 0.0 0.0 100.0 0.0 0.0 0.0 100.0" Properties=species:S:1:pos:R:3 Energy=-310674.0847672619 pbc="F F F"
C       51.77887561      50.13191371      50.12729606
C       50.40617681      50.01640425      50.11452026
C       49.64929817      51.18827740      49.79621260
O       50.19038795      52.41494356      49.74196662
C       48.22358853      51.14894654      49.86880519
C       47.62598008      49.84714781      49.93220170
C       48.35093281      48.63447793      49.88265876
C       49.75234127      48.76878015      50.05265494
O       52.25284495      51.29423717      50.16014589
O       52.56634389      49.07197618      50.10317535
H       51.16690920      52.09548133      49.84129375
H       47.54371755      52.02340129      49.88918359
H       46.58102579      49.85511676      49.61055374
H       47.87149109      47.58505644      50.22623311
H       50.31510442      47.89684159      50.38944626
H       53.41897421      49.38763850      49.79968879
