16
Lattice="100.0 0.0 0.0 0.0 100.0 0.0 0.0 0.0 100.0" Properties=species:S:1:pos:R:3 Energy=-310676.3327128363 pbc="F F F"
C       51.69565608      50.10716683      50.25615266
C       50.26852668      49.94140573      50.08337881
C       49.53977144      51.13826622      49.93464555
O       50.13726900      52.32661815      49.82592491
C       48.17915452      51.06507029      49.93574310
C       47.70931033      49.76129464      49.95239168
C       48.36167552      48.49175175      50.03647253
C       49.71706834      48.64774325      50.09047512
O       52.34318230      51.17530427      50.20257089
O       52.47852008      48.92564438      50.20229053
H       51.17448852      51.95397417      50.00834571
H       47.45863165      51.80745288      49.71868341
H       46.62197155      49.51535784      49.83603286
H       47.65340605      47.67338185      50.02905470
H       50.47939309      47.88255383      50.21634060
H       53.37802845      49.35708337      50.28131659
