16
Lattice="100.0 0.0 0.0 0.0 100.0 0.0 0.0 0.0 100.0" Properties=species:S:1:pos:R:3 Energy=-310676.9515462495 pbc="F F F"
C       51.84191283      50.20729386      50.32757044
C       50.42085891      50.10443688      50.25683371
C       49.67843689      51.30871803      50.08995013
O       50.32451476      52.47423564      49.95347599
C       48.24415935      51.11091048      50.00762446
C       47.72458584      49.70006474      49.92397845
C       48.55080269      48.58873048      50.10245613
C       49.90576833      48.77760411      50.35451976
O       52.54863947      51.24269982      50.23694815
O       52.39075416      48.97499163      50.23435283
H       51.25507503      52.37894098      50.18932645
H       47.81127027      51.99395591      49.42007621
H       46.66139632      49.60616060      49.75006601
H       48.22511813      47.52576436      50.14243086
H       50.59388107      47.97002255      50.57992379
H       53.33860368      49.27517823      50.19251385
