16
Lattice="100.0 0.0 0.0 0.0 100.0 0.0 0.0 0.0 100.0" Properties=species:S:1:pos:R:3 Energy=-310666.98018600175 pbc="F F F"
C       51.87955716      49.87340650      50.17266259
C       50.36166510      49.86069467      50.05690954
C       49.61758125      50.98420855      49.82323168
O       50.03755673      52.22198456      49.82803536
C       48.17728599      50.83770681      49.78732097
C       47.64307322      49.52856479      50.01275713
C       48.47472272      48.48516471      50.16093822
C       49.88230796      48.58367365      50.12899224
O       52.45841754      50.91540944      50.46896380
O       52.57666769      48.65970741      50.06188066
H       50.97981209      52.49339832      49.66602843
H       47.55972764      51.73731975      49.53103620
H       46.53863626      49.32267870      50.01908336
H       48.18477773      47.50660168      50.22739693
H       50.49972678      47.81153838      50.15895255
H       53.46136374      49.00162276      50.18621875
