16
Lattice="100.0 0.0 0.0 0.0 100.0 0.0 0.0 0.0 100.0" Properties=species:S:1:pos:R:3 Energy=-310657.40759060957 pbc="F F F"
C       51.97315085      49.99663092      50.16763503
C       50.34654536      49.83364933      50.17938438
C       49.58267445      50.94780551      50.04219992
O       50.10663681      52.28292001      49.91747588
C       48.09490365      50.82088978      49.92658884
C       47.53486427      49.56881641      49.87609355
C       48.47505685      48.46886138      49.99905150
C       49.79424999      48.62638992      50.15383112
O       52.55992875      51.08235848      50.07994702
O       52.46718552      48.60204072      50.35672702
H       51.02078392      52.43752058      50.14587375
H       47.54006892      51.80172493      49.93837541
H       46.56123850      49.38092156      49.49746181
H       47.90765073      47.56247942      49.89176558
H       50.33946185      47.71666815      50.24709358
H       53.43876150      48.67420495      50.50253819
