16
Lattice="100.0 0.0 0.0 0.0 100.0 0.0 0.0 0.0 100.0" Properties=species:S:1:pos:R:3 Energy=-310674.81842015556 pbc="F F F"
C       52.01659417      49.99033154      50.12602650
C       50.47069985      49.81124915      49.96013685
C       49.61933244      51.05168646      49.90264323
O       50.05620857      52.36838711      49.95583465
C       48.21394437      50.90442902      49.87445458
C       47.62399387      49.58821781      49.86043296
C       48.45405149      48.45608057      49.88694424
C       49.81523997      48.67414054      50.13901084
O       52.57192381      51.07105626      49.93108775
O       52.48138769      48.71087792      50.39487031
H       51.02490469      52.51331726      49.83881255
H       47.62501917      51.86446823      49.92512250
H       46.51766812      49.48763911      49.60512969
H       47.98428763      47.48668274      49.81031433
H       50.49664657      47.81727989      50.10904222
H       53.48233188      48.64465603      50.34513108
