18
Lattice="100.0 0.0 0.0 0.0 100.0 0.0 0.0 0.0 100.0" Properties=species:S:1:pos:R:3 Energy=-241620.890625 Energy_pyscf=-241621.14163883158 Energy_nn=-241623.84375 pbc="F F F"
C       48.83406917      48.54623179      50.16488774
C       47.66459487      49.18803360      49.85124457
C       47.45164057      50.68476779      49.94071963
C       48.64104828      51.52076278      49.90469309
C       49.91592003      50.80183959      50.03144242
C       51.03950442      51.59693928      49.89945337
C       52.33397124      51.09277444      49.99867772
C       52.45605093      49.72849141      50.25138970
C       51.41467355      48.87258640      50.39368392
C       50.02520949      49.35708170      50.19212702
H       48.70282391      47.52624708      50.52771134
H       46.69042743      48.66387990      50.02429360
H       46.50465554      51.04330513      49.80345914
H       48.67557727      52.49221472      49.41356108
H       50.86565419      52.63101557      49.63974962
H       53.07724632      51.76863861      50.08178144
H       53.53020320      49.28870923      50.22361411
H       51.60941900      47.86339656      50.36406360
