18
Lattice="100.0 0.0 0.0 0.0 100.0 0.0 0.0 0.0 100.0" Properties=species:S:1:pos:R:3 Energy=-241634.6875 Energy_pyscf=-241633.75844813007 Energy_nn=-241635.3125 pbc="F F F"
C       48.90246580      48.52095254      50.24548154
C       47.58396353      49.10603610      50.04635036
C       47.42571072      50.56391417      49.90602390
C       48.59581319      51.26900692      49.81238951
C       49.93208216      50.70675973      50.10749415
C       51.03146688      51.57377937      50.04338702
C       52.31074782      50.92146655      49.97033097
C       52.56139871      49.59056588      50.24310058
C       51.36635834      48.81675632      50.36565397
C       50.08180467      49.30365118      50.19946039
H       49.08412059      47.48292239      50.23768568
H       46.84201088      48.30650693      49.99780107
H       46.44870869      50.93341909      49.71530900
H       48.64698427      52.34085524      49.43533698
H       50.93818157      52.68148974      49.78471295
H       53.15101414      51.50486333      49.77359338
H       53.49218038      49.09833508      50.28579853
H       51.50810015      47.63724939      50.43403679
