18
Lattice="100.0 0.0 0.0 0.0 100.0 0.0 0.0 0.0 100.0" Properties=species:S:1:pos:R:3 Energy=-241610.296875 Energy_pyscf=-241603.36563174712 Energy_nn=-241613.359375 pbc="F F F"
C       49.10469848      48.45172657      50.33728262
C       47.85200566      48.91207070      50.05878199
C       47.69067962      50.41774536      49.77490481
C       48.74400139      51.23691512      49.79870461
C       50.02556646      50.71781236      50.14479406
C       51.34864307      51.50971243      50.10079651
C       52.49219346      50.77575147      49.86609816
C       52.49850956      49.35115765      50.00703808
C       51.43107887      48.63424937      50.44691132
C       50.18370499      49.30961306      50.18503718
H       49.32500841      47.46146923      50.36537757
H       47.04676971      48.33917214      50.16343222
H       46.58364247      50.58198557      49.47586724
H       48.49951836      52.25373466      49.59689137
H       51.12985754      52.58562972      50.07111487
H       53.27379655      51.48190411      50.01593515
H       53.38135246      48.79228446      50.12525834
H       51.58262267      47.55863223      50.67666410
