18
Lattice="100.0 0.0 0.0 0.0 100.0 0.0 0.0 0.0 100.0" Properties=species:S:1:pos:R:3 Energy=-241644.78125 Energy_pyscf=-241640.65658637334 Energy_nn=-241645.09375 pbc="F F F"
C       48.75620351      48.42493041      50.23544385
C       47.55228153      48.94722551      50.01433873
C       47.45361779      50.33482869      49.74926481
C       48.61298024      51.14266765      49.63335121
C       49.87387368      50.60984966      49.95005497
C       51.05474404      51.46184495      49.89524938
C       52.29424700      50.96007968      50.12827378
C       52.44696178      49.53296301      50.08615999
C       51.32951742      48.66308730      50.13386511
C       50.01613204      49.13725258      50.17821853
H       48.76247455      47.34619627      50.53131324
H       46.55621327      48.49209081      50.24881696
H       46.47723072      50.76863765      49.45205469
H       48.53824757      52.28873568      49.47845554
H       51.00854237      52.55282728      49.87346877
H       53.10828811      51.68977453      49.91835301
H       53.44353939      48.96518260      50.03261478
H       51.50236904      47.51774248      50.29821893
