18
Lattice="100.0 0.0 0.0 0.0 100.0 0.0 0.0 0.0 100.0" Properties=species:S:1:pos:R:3 Energy=-241629.765625 Energy_pyscf=-241630.05918005062 Energy_nn=-241631.609375 pbc="F F F"
C       48.96971978      48.53380650      50.14978734
C       47.64484546      49.04719744      50.11801621
C       47.45745655      50.52012455      49.89433645
C       48.65153891      51.27792928      49.86021314
C       49.95137228      50.74712994      50.26121846
C       51.11979138      51.51095208      50.02495997
C       52.29522075      50.86431786      50.05209567
C       52.50916609      49.49119264      50.20766361
C       51.39698564      48.72067553      50.45352248
C       50.10166466      49.28735089      50.26634377
H       49.26401895      47.44001899      50.12340528
H       46.85314946      48.25694360      50.02471750
H       46.47480154      50.95906077      49.59765615
H       48.62323716      52.30644964      49.53373742
H       50.89647510      52.48910987      49.53720576
H       53.18747831      51.45469446      49.89483856
H       53.49124682      48.94400051      49.97458223
H       51.37037454      47.60412091      50.29952592
