18
Lattice="100.0 0.0 0.0 0.0 100.0 0.0 0.0 0.0 100.0" Properties=species:S:1:pos:R:3 Energy=-241627.96875 Energy_pyscf=-241625.0714896012 Energy_nn=-241628.625 pbc="F F F"
C       48.87056425      48.53840929      50.32418946
C       47.62700229      49.02673693      50.21032056
C       47.50998700      50.41625823      49.96362946
C       48.58661731      51.26916177      49.68746471
C       49.90204235      50.74794707      49.98025284
C       51.13891761      51.44155276      49.90992883
C       52.31200017      50.92150325      50.29871067
C       52.55746246      49.51116302      50.28146743
C       51.36484482      48.80754557      50.12299305
C       50.04827325      49.37771885      50.12039981
H       49.05654405      47.46295770      50.53912549
H       46.79361019      48.40432294      50.36112835
H       46.52131865      50.82683930      50.21214635
H       48.62789558      52.22791097      49.30287181
H       51.19154215      52.44836681      49.73129266
H       53.22122777      51.62628708      50.27304984
H       53.47582304      48.87060963      50.30757408
H       51.19870063      47.74325414      50.22015542
