18
Lattice="100.0 0.0 0.0 0.0 100.0 0.0 0.0 0.0 100.0" Properties=species:S:1:pos:R:3 Energy=-241636.71875 Energy_pyscf=-241638.88725500912 pbc="F F F"
C       48.88861525      48.53772347      50.04628673
C       47.57229925      49.17099040      49.71494531
C       47.44831003      50.57818991      49.63373621
C       48.58961688      51.33534392      49.61302979
C       49.84728420      50.81541634      49.86803107
C       51.04886212      51.58028307      49.74380971
C       52.25752377      50.99385025      49.63678454
C       52.45938355      49.56815460      49.93557907
C       51.39044201      48.73684873      50.22082804
C       50.04715299      49.30756933      50.07288553
H       48.88428111      47.48306672      49.98268150
H       46.65239175      48.45013983      49.64984990
H       46.43792392      50.94959615      49.40108924
H       48.44849668      52.47172752      49.60456223
H       50.91145484      52.64698784      49.71291712
H       53.03653241      51.78561803      49.48428487
H       53.50640005      49.22525866      49.83022718
H       51.44721466      47.69728591      50.44420478
