18
Lattice="100.0 0.0 0.0 0.0 100.0 0.0 0.0 0.0 100.0" Properties=species:S:1:pos:R:3 Energy=-241652.5 Energy_pyscf=-241648.71665490637 Energy_nn=-241651.1875 pbc="F F F"
C       48.85743703      48.52721902      50.22625861
C       47.65921755      49.10180926      50.06201493
C       47.49709927      50.50105856      49.89351997
C       48.61044657      51.32523308      49.79596021
C       49.90207158      50.74949584      50.04851504
C       51.03204224      51.50693296      49.98091692
C       52.29430588      50.91991826      50.00861464
C       52.53151190      49.60101746      50.22211206
C       51.39771785      48.80894126      50.35564050
C       50.10025258      49.29394976      50.17242516
H       48.99102013      47.42937317      50.26339237
H       46.78188063      48.39956122      49.97059993
H       46.48851349      50.96955723      49.69783079
H       48.49821813      52.36103600      49.48073368
H       50.92826475      52.60287925      49.87308807
H       53.19460407      51.45220581      49.74535503
H       53.51155984      49.17980343      50.27260329
H       51.58727922      47.69307134      50.50259033
