18
Lattice="100.0 0.0 0.0 0.0 100.0 0.0 0.0 0.0 100.0" Properties=species:S:1:pos:R:3 Energy=-241611.421875 Energy_pyscf=-241611.39459975433 Energy_nn=-241615.03125 pbc="F F F"
C       48.99350577      48.53080697      49.99665477
C       47.77633415      49.07634730      50.07245171
C       47.68531986      50.50390928      49.85737740
C       48.72366185      51.29878452      49.71048313
C       50.06472340      50.63865295      49.69877047
C       51.22772608      51.49697732      49.69950115
C       52.39851160      51.02661288      50.14120193
C       52.48791702      49.58731338      50.18322648
C       51.42425848      48.64417695      50.16397142
C       50.14719189      49.27764148      49.99709619
H       49.05515479      47.45014560      50.35154947
H       46.73180200      48.78408929      50.60184246
H       46.63521813      50.85917985      50.02342255
H       48.85773239      52.31873624      49.58795663
H       51.06778934      52.54612849      49.29898184
H       53.38760661      51.65845073      50.38145103
H       53.41501715      49.11995489      50.27632447
H       51.48381937      47.52799313      49.92745374
