18
Lattice="100.0 0.0 0.0 0.0 100.0 0.0 0.0 0.0 100.0" Properties=species:S:1:pos:R:3 Energy=-241636.796875 Energy_pyscf=-241633.91926555047 Energy_nn=-241636.296875 pbc="F F F"
C       48.79018085      48.45135106      50.19413489
C       47.56817783      49.01002172      49.94327833
C       47.43794486      50.42600152      49.72004101
C       48.58445339      51.07572004      49.60482483
C       49.85932449      50.56829994      49.95206186
C       51.07009090      51.46137295      49.95140940
C       52.28809272      50.93303273      50.07944510
C       52.49838153      49.53160499      50.13182138
C       51.33545840      48.67442856      50.26859990
C       49.97029142      49.14007109      50.27310236
H       48.75296869      47.39469427      50.50102287
H       46.75990840      48.39614082      50.22771813
H       46.46979425      50.83371540      49.55840774
H       48.54558439      52.18846240      49.52723427
H       50.97970545      52.56609778      49.78358598
H       53.04034189      51.65867368      49.91236424
H       53.45144792      48.98707486      49.99353333
H       51.37263282      47.55700793      50.26132100
