18
Lattice="100.0 0.0 0.0 0.0 100.0 0.0 0.0 0.0 100.0" Properties=species:S:1:pos:R:3 Energy=-241648.9375 Energy_pyscf=-241647.57891917008 Energy_nn=-241649.15625 pbc="F F F"
C       48.88867754      48.50885598      50.17393115
C       47.61676784      49.10489194      50.06371604
C       47.49518797      50.53501000      49.84174547
C       48.61702301      51.29480283      49.80098642
C       49.94060259      50.71737723      50.01761860
C       51.02405573      51.53371927      49.90760701
C       52.25359414      50.91776296      49.97552564
C       52.44494565      49.57693718      50.31900359
C       51.35476892      48.75834531      50.27849088
C       50.06928797      49.29684645      50.15294500
H       49.09524945      47.41950501      50.33447105
H       46.82430451      48.45038310      49.99998851
H       46.51521417      50.94950776      49.76791375
H       48.55876781      52.33225582      49.56049868
H       50.96391763      52.61289926      49.86663026
H       53.17089596      51.49374360      49.79225811
H       53.50862276      49.20783524      50.26196948
H       51.51204398      47.66656501      50.49410334
