18
Lattice="100.0 0.0 0.0 0.0 100.0 0.0 0.0 0.0 100.0" Properties=species:S:1:pos:R:3 Energy=-241623.9375 Energy_pyscf=-241624.63274227417 Energy_nn=-241625.84375 pbc="F F F"
C       48.80781734      48.48293018      49.89716435
C       47.55449960      49.06379757      50.03127984
C       47.58327561      50.48115999      49.78647984
C       48.61184098      51.30803728      49.40207943
C       49.92559421      50.73049860      49.65417477
C       51.06994781      51.48911542      49.60468406
C       52.36135472      51.07735549      49.99431554
C       52.46605923      49.63892047      50.17133514
C       51.33653884      48.77576167      50.04126914
C       49.99055072      49.26068221      49.82012117
H       48.84592347      47.36239798      49.75038714
H       46.76685852      48.57207378      50.49471399
H       46.66263268      51.05397062      49.84494480
H       48.33506580      52.38083622      49.33924142
H       50.93419877      52.59837335      49.36782028
H       53.35160931      51.70137722      50.16813715
H       53.36108220      49.00551413      50.33257948
H       51.32255181      47.60727961      50.36980448
