18
Lattice="100.0 0.0 0.0 0.0 100.0 0.0 0.0 0.0 100.0" Properties=species:S:1:pos:R:3 Energy=-241609.296875 Energy_pyscf=-241607.94252350184 Energy_nn=-241616.96875 pbc="F F F"
C       48.97536284      48.43374824      49.93779579
C       47.82532338      49.05998752      49.90211015
C       47.61240382      50.48552207      49.93476558
C       48.74691841      51.29945491      49.81675315
C       50.14177341      50.70398410      49.84830089
C       51.24846186      51.44005169      49.62950636
C       52.48344144      50.94215718      49.97516252
C       52.54610911      49.59886193      50.34571765
C       51.30818820      48.86203453      50.45924006
C       50.12637479      49.26446868      49.97760780
H       49.16185174      47.41740756      50.12533138
H       46.99814345      48.39341920      50.22593949
H       46.63498833      50.99977235      49.64092476
H       48.78523679      52.32918347      49.82685219
H       51.16785437      52.55833961      49.48690293
H       53.42989629      51.53414874      49.73972824
H       53.48079537      49.16172863      50.07366438
H       51.51290267      47.78542658      50.52772499
