18
Lattice="100.0 0.0 0.0 0.0 100.0 0.0 0.0 0.0 100.0" Properties=species:S:1:pos:R:3 Energy=-241627.421875 Energy_pyscf=-241625.77895896888 Energy_nn=-241629.640625 pbc="F F F"
C       48.98497116      48.50028823      50.22484809
C       47.59933637      49.02854618      50.11195177
C       47.53994280      50.46552779      49.79564041
C       48.62844124      51.30187104      49.81067644
C       49.91869892      50.79658273      50.07260878
C       51.11087547      51.53874005      50.09515824
C       52.34760231      50.86390191      49.90059057
C       52.46148492      49.45243085      50.22622323
C       51.38994118      48.69845078      50.32700924
C       50.14072423      49.27811034      50.13975172
H       49.15447656      47.43185453      50.07611438
H       46.80083941      48.25238451      50.05300331
H       46.56384613      50.89433621      49.68439750
H       48.45656308      52.46404892      49.66499679
H       50.89288098      52.54204101      49.63202831
H       53.26638794      51.41573849      49.82013177
H       53.49500503      48.97719550      50.15455996
H       51.48135830      47.55470383      50.46295897
