18
Lattice="100.0 0.0 0.0 0.0 100.0 0.0 0.0 0.0 100.0" Properties=species:S:1:pos:R:3 Energy=-241642.296875 Energy_pyscf=-241643.02132910176 Energy_nn=-241642.96875 pbc="F F F"
C       48.79371868      48.46223043      50.12095612
C       47.60762121      49.02689070      49.85588672
C       47.50276100      50.41995395      49.71137852
C       48.61876420      51.23878073      49.60265484
C       49.97055923      50.68846646      49.77500261
C       51.06132849      51.56172185      49.78872844
C       52.36466634      51.03646506      49.93839903
C       52.45316470      49.58617726      50.01633294
C       51.31285926      48.72935521      50.09454244
C       50.02205985      49.23601837      50.02321344
H       48.79129631      47.38430403      50.32854126
H       46.66872988      48.51376260      49.98632253
H       46.56670903      50.98868451      49.67201760
H       48.51735571      52.25246823      49.65994526
H       50.99114293      52.65302537      49.76083759
H       53.31335427      51.53025117      49.94674668
H       53.42492290      49.03180025      49.87910760
H       51.50708483      47.57962139      50.09597532
