18
Lattice="100.0 0.0 0.0 0.0 100.0 0.0 0.0 0.0 100.0" Properties=species:S:1:pos:R:3 Energy=-241647.765625 Energy_pyscf=-241644.23685394117 Energy_nn=-241645.5625 pbc="F F F"
C       48.84880834      48.51668002      50.18005918
C       47.61254759      49.05820866      50.11308120
C       47.49206585      50.46846676      49.77294057
C       48.63177033      51.24645229      49.62291814
C       49.90632320      50.74026092      49.79243300
C       51.07665968      51.56918071      49.86035863
C       52.33155875      51.01442493      50.11285792
C       52.50718413      49.65738398      50.26227807
C       51.42998004      48.79927734      50.13198311
C       50.06095193      49.25754069      49.87442431
H       48.99262007      47.43338000      50.40347149
H       46.70107066      48.52059483      50.43116898
H       46.54702907      50.91693642      49.78965141
H       48.49942449      52.36819455      49.65303122
H       50.91702341      52.57089651      49.63962267
H       53.22113860      51.71584161      50.10412135
H       53.44623162      49.11867146      50.20900427
H       51.54665924      47.74726063      50.13828577
