18
Lattice="100.0 0.0 0.0 0.0 100.0 0.0 0.0 0.0 100.0" Properties=species:S:1:pos:R:3 Energy=-241636.15625 Energy_pyscf=-241634.7878175248 Energy_nn=-241637.53125 pbc="F F F"
C       48.93239157      48.52324083      50.17677810
C       47.68483230      48.98711081      50.10180566
C       47.52473225      50.43362771      49.86991853
C       48.57004350      51.27619080      49.82491084
C       49.95796708      50.76854040      49.99443492
C       51.13373915      51.55904568      50.01098753
C       52.37190373      50.94288389      49.94994120
C       52.42886037      49.46861018      50.16089239
C       51.34571301      48.70077956      50.28399810
C       50.05528243      49.36055245      50.12973607
H       49.13371801      47.43621445      50.02338822
H       46.94751068      48.27783222      50.12132830
H       46.49536162      50.86168099      49.75131743
H       48.48776116      52.34341075      49.64134884
H       50.91120470      52.57481755      49.62010242
H       53.43382767      51.25316426      49.99733160
H       53.50150935      49.07496746      50.15232921
H       51.30300884      47.59487081      50.49047190
