18
Lattice="100.0 0.0 0.0 0.0 100.0 0.0 0.0 0.0 100.0" Properties=species:S:1:pos:R:3 Energy=-241609.40625 Energy_pyscf=-241607.3447525914 Energy_nn=-241614.078125 pbc="F F F"
C       48.97723297      48.61384107      50.09549697
C       47.75187408      49.14604714      50.28011366
C       47.52724300      50.46848325      49.77379995
C       48.60003939      51.27649176      49.64289877
C       49.94816065      50.71243618      49.63452050
C       51.12799114      51.54180569      49.67225263
C       52.33609025      50.97245676      50.18423269
C       52.42438814      49.57392724      50.27559141
C       51.37608088      48.86409571      49.93951465
C       50.10035854      49.39038039      49.76997181
H       49.18212415      47.41548742      50.14496063
H       46.88759795      48.75151574      50.75844945
H       46.63609012      50.86108562      49.24108357
H       48.46302232      52.34782489      49.50311390
H       51.05625738      52.55555953      49.38106211
H       53.12365824      51.67131718      50.16872298
H       53.41905002      49.30613762      50.45936020
H       51.61904360      47.83436057      49.88659013
