18
Lattice="100.0 0.0 0.0 0.0 100.0 0.0 0.0 0.0 100.0" Properties=species:S:1:pos:R:3 Energy=-241636.21875 Energy_pyscf=-241638.71944067103 pbc="F F F"
C       48.91098854      48.52501725      50.15220097
C       47.61692531      49.05148645      50.14447627
C       47.52353389      50.49308769      49.84715262
C       48.62638614      51.28825680      49.77932947
C       49.92373143      50.72837713      50.10298826
C       51.01429960      51.52564149      49.97818174
C       52.27757248      50.99225755      50.01188603
C       52.45345989      49.62744371      50.32308434
C       51.38397817      48.68671233      50.31944573
C       50.11046938      49.26466618      50.18713358
H       48.98171494      47.41711712      50.30822481
H       46.78849115      48.42460639      49.93885322
H       46.48735679      51.05925498      49.73701796
H       48.58465934      52.36895376      49.49914065
H       50.89846668      52.62729906      49.81876757
H       53.17343634      51.44702412      49.74660962
H       53.49718334      49.23219539      50.19122649
H       51.63759463      47.64533927      50.53595134
