18
Lattice="100.0 0.0 0.0 0.0 100.0 0.0 0.0 0.0 100.0" Properties=species:S:1:pos:R:3 Energy=-241644.234375 Energy_pyscf=-241640.56085924484 Energy_nn=-241645.375 pbc="F F F"
C       48.98192879      48.52065237      50.04209085
C       47.67677897      49.01819400      50.15095489
C       47.48073010      50.39710191      50.00202033
C       48.67588530      51.23837094      49.79791900
C       49.95568026      50.70882347      49.96923614
C       51.12042396      51.46617642      49.84169255
C       52.38497045      50.90499035      50.10574385
C       52.57738528      49.47265024      50.32975216
C       51.40637300      48.68472622      50.40602921
C       50.13613389      49.27806526      50.09963208
H       49.17033501      47.43857169      50.21811060
H       46.76376580      48.43902899      50.33836802
H       46.49466164      50.88073755      49.81379266
H       48.51871266      52.26913939      49.57421197
H       51.07782100      52.58673649      49.87009758
H       53.19522648      51.68198099      49.91244850
H       53.51603427      48.93049441      50.28378529
H       51.40895183      47.63116566      50.43891999
