18
Lattice="100.0 0.0 0.0 0.0 100.0 0.0 0.0 0.0 100.0" Properties=species:S:1:pos:R:3 Energy=-241632.015625 Energy_pyscf=-241633.6511822472 Energy_nn=-241632.640625 pbc="F F F"
C       48.85647275      48.44684253      50.28440203
C       47.56535366      49.12236198      50.13247528
C       47.40850651      50.53095133      49.84660240
C       48.59625945      51.32890012      49.78700552
C       49.87887685      50.65353723      49.96849966
C       51.02426476      51.54906197      49.93225062
C       52.29657412      51.02950279      49.99319169
C       52.45516754      49.66321093      50.29145525
C       51.40613110      48.69673007      50.30419465
C       50.06720852      49.25170353      50.22664118
H       48.97122632      47.33820220      50.26338670
H       46.75604047      48.36382428      49.86901036
H       46.48125751      51.09270248      49.75825167
H       48.58407263      52.41799764      49.58899300
H       50.98649258      52.64420728      49.77057458
H       53.27372093      51.45056212      49.75280762
H       53.56171460      49.32500529      50.27328555
H       51.71333481      47.53519405      50.52724073
