18
Lattice="100.0 0.0 0.0 0.0 100.0 0.0 0.0 0.0 100.0" Properties=species:S:1:pos:R:3 Energy=-241645.875 Energy_pyscf=-241644.49058699093 Energy_nn=-241645.03125 pbc="F F F"
C       48.83673443      48.63078264      50.32129778
C       47.62790484      49.22441683      49.97423204
C       47.50421419      50.62341322      49.84328411
C       48.59192601      51.43223783      49.75358547
C       49.88705846      50.82046560      50.01785020
C       51.04766197      51.57995960      49.89580822
C       52.34752643      51.10851955      50.02213838
C       52.50503582      49.73410230      50.21518202
C       51.43170430      48.87936176      50.26363655
C       50.05658972      49.39959477      50.22730158
H       48.65694807      47.55807631      50.46567640
H       46.74163736      48.59626886      49.95149810
H       46.40931623      51.04677776      49.74985118
H       48.61552472      52.59166076      49.60891501
H       50.92418791      52.63537224      49.68531243
H       53.11855696      51.77235423      50.00307674
H       53.49504682      49.21694811      50.26643283
H       51.65631069      47.81354654      50.43566674
