18
Lattice="100.0 0.0 0.0 0.0 100.0 0.0 0.0 0.0 100.0" Properties=species:S:1:pos:R:3 Energy=-241641.921875 Energy_pyscf=-241639.94394761606 Energy_nn=-241642.125 pbc="F F F"
C       48.99641849      48.47667952      50.19947777
C       47.73081690      48.94012950      49.93687980
C       47.55901425      50.31574028      49.81688552
C       48.61756414      51.15084847      49.76741765
C       49.92904024      50.61024017      50.12194921
C       51.11834159      51.43897068      49.94285248
C       52.34035756      50.78951985      49.91403865
C       52.45317143      49.38495069      50.12086979
C       51.36594088      48.60333028      50.49296949
C       50.10873268      49.23208123      50.35986549
H       49.20202894      47.37756485      50.13138783
H       46.87216534      48.23281737      49.71751623
H       46.56155977      50.75436671      49.74255556
H       48.56636604      52.25791810      49.61120255
H       50.94248532      52.47121280      49.44218582
H       53.22797841      51.37782932      49.54937603
H       53.39562559      48.93505166      50.15940803
H       51.41275206      47.54391586      50.54330605
