18
Lattice="100.0 0.0 0.0 0.0 100.0 0.0 0.0 0.0 100.0" Properties=species:S:1:pos:R:3 Energy=-241629.421875 Energy_pyscf=-241628.89581890017 Energy_nn=-241630.484375 pbc="F F F"
C       48.86623437      48.44311508      50.16327630
C       47.66085672      48.95085742      49.81788936
C       47.50387641      50.27186987      49.59111876
C       48.59251563      51.04882627      49.71568228
C       49.95820035      50.68875442      49.92672175
C       51.25933213      51.43210333      49.73025768
C       52.43705059      50.80249148      49.93103182
C       52.47512792      49.39561550      50.12590968
C       51.37770182      48.57967556      50.06704192
C       50.11326608      49.20972686      50.02131848
H       49.00519873      47.35677705      50.51325893
H       46.81394079      48.19965549      49.86794702
H       46.47068782      50.66511620      49.67287818
H       48.37043048      52.13984846      49.66409694
H       51.23122304      52.55910860      49.53496480
H       53.25523731      51.48105138      50.22462736
H       53.54680896      48.96349959      50.20154642
H       51.26992393      47.50133833      50.15026128
