18
Lattice="100.0 0.0 0.0 0.0 100.0 0.0 0.0 0.0 100.0" Properties=species:S:1:pos:R:3 Energy=-241649.5625 Energy_pyscf=-241647.83481670427 Energy_nn=-241650.078125 pbc="F F F"
C       48.87142081      48.48683250      50.19354269
C       47.63083999      49.01766385      50.02706731
C       47.48632825      50.41056964      49.80452595
C       48.62096894      51.23356609      49.64986933
C       49.93783639      50.73884400      49.94964925
C       51.14072544      51.52965001      49.85062197
C       52.31150169      50.91380314      50.04167771
C       52.47814442      49.49880475      50.21378709
C       51.34124095      48.67891385      50.19396577
C       50.13447034      49.32070357      50.19843048
H       48.97598065      47.40869358      50.26866828
H       46.70111103      48.46231052      50.01910366
H       46.49392770      50.80403653      49.71350534
H       48.51079479      52.32860811      49.56499850
H       51.07468409      52.59648949      49.63645174
H       53.23519361      51.47143324      49.88155778
H       53.50512701      49.19756726      50.50895347
H       51.46533856      47.61211421      50.33374481
