18
Lattice="100.0 0.0 0.0 0.0 100.0 0.0 0.0 0.0 100.0" Properties=species:S:1:pos:R:3 Energy=-241624.890625 Energy_pyscf=-241623.051075913 Energy_nn=-241626.546875 pbc="F F F"
C       48.78327420      48.48028676      49.89147835
C       47.53937861      49.11828599      50.02869595
C       47.50781253      50.52640734      49.71677265
C       48.64927197      51.26384781      49.58366513
C       49.90328885      50.66551493      49.52427387
C       51.13241560      51.45796348      49.60239004
C       52.30787549      51.08709400      49.94186447
C       52.48612499      49.61485162      50.18915390
C       51.35723281      48.73363481      50.03281320
C       49.93743896      49.21246841      49.83344218
H       48.90936821      47.47550856      49.80814051
H       46.69284741      48.57247048      50.47895107
H       46.55806968      51.07901830      49.78523279
H       48.47925345      52.32014130      49.37496326
H       51.01252592      52.52801399      49.47396012
H       53.20007416      51.65061347      50.09588492
H       53.39568586      49.13224514      50.34206127
H       51.44285332      47.67556375      50.33145132
