18
Lattice="100.0 0.0 0.0 0.0 100.0 0.0 0.0 0.0 100.0" Properties=species:S:1:pos:R:3 Energy=-241636.625 Energy_pyscf=-241634.75947949858 Energy_nn=-241637.5625 pbc="F F F"
C       48.86317850      48.50304792      49.93622965
C       47.59500138      49.05075590      50.15385027
C       47.51539058      50.47099530      49.81678917
C       48.59105186      51.23726130      49.44898094
C       49.89543253      50.73706602      49.51525488
C       50.98466143      51.54398540      49.66200279
C       52.25128139      50.98893760      49.94863536
C       52.41741369      49.59188637      50.11819454
C       51.27593153      48.74435197      50.02373429
C       50.00797637      49.35117241      49.86143866
H       48.81618286      47.40510329      49.94984254
H       46.64310355      48.50217227      50.21342584
H       46.56085650      50.94179296      49.88349192
H       48.42418460      52.29456931      49.36834268
H       50.78220795      52.52730879      49.42257077
H       53.06219481      51.59466994      50.03596190
H       53.31184405      49.22886032      50.64842279
H       51.24711243      47.64691106      50.24483124
