18
Lattice="100.0 0.0 0.0 0.0 100.0 0.0 0.0 0.0 100.0" Properties=species:S:1:pos:R:3 Energy=-241652.375 Energy_pyscf=-241648.96389364544 Energy_nn=-241650.421875 pbc="F F F"
C       48.87120805      48.44994497      50.30384996
C       47.61653275      49.03187858      50.15571946
C       47.48687896      50.47230415      49.95766115
C       48.59373410      51.28730859      49.72094956
C       49.92570541      50.72327865      49.85052048
C       51.12674833      51.46819076      49.93364447
C       52.39508020      50.86506170      50.21973816
C       52.51231641      49.48134579      50.25564642
C       51.34739533      48.72269349      50.21685474
C       49.99821367      49.29159490      50.01678873
H       49.00257842      47.40715003      50.57229214
H       46.71001298      48.47496841      50.41731998
H       46.48897571      50.88102126      50.13343721
H       48.57416712      52.35423875      49.47972660
H       51.03146065      52.53979798      49.74961320
H       53.30026782      51.48184400      50.24736545
H       53.53285221      49.01268444      50.37784419
H       51.44045278      47.70467848      50.29499315
