18
Lattice="100.0 0.0 0.0 0.0 100.0 0.0 0.0 0.0 100.0" Properties=species:S:1:pos:R:3 Energy=-241643.515625 Energy_pyscf=-241640.87629817406 Energy_nn=-241643.9375 pbc="F F F"
C       48.91795013      48.50454776      50.19289795
C       47.66372154      49.11491785      50.03198058
C       47.42722565      50.47744895      49.84175565
C       48.61096026      51.32815893      49.79810983
C       49.92394635      50.77268156      49.97066627
C       51.07388863      51.60381237      50.05845375
C       52.28305980      50.91860435      50.03911604
C       52.48127608      49.53651592      50.27342179
C       51.44109361      48.73589375      50.29790392
C       50.11917782      49.27010366      50.17460977
H       49.01111587      47.38356686      50.32757738
H       46.81734144      48.45845036      50.03244236
H       46.41155234      51.00839649      49.70769369
H       48.48124165      52.36922157      49.60219685
H       50.83230233      52.61992520      49.75309970
H       53.26557020      51.41555817      49.79574925
H       53.57462223      49.18810832      50.24506486
H       51.54091863      47.66625335      50.50363776
