18
Lattice="100.0 0.0 0.0 0.0 100.0 0.0 0.0 0.0 100.0" Properties=species:S:1:pos:R:3 Energy=-241659.078125 Energy_pyscf=-241651.29419492776 Energy_nn=-241653.515625 pbc="F F F"
C       48.86253159      48.50605393      50.18662630
C       47.65971005      49.09972123      50.05994508
C       47.49133118      50.48473568      49.81262647
C       48.63392315      51.30782393      49.83481242
C       49.91551076      50.68471311      49.99705769
C       51.03430096      51.51815119      50.00018369
C       52.29017996      50.96833175      49.96780807
C       52.47286574      49.57147108      50.24294725
C       51.34813212      48.73739008      50.38735567
C       50.10308699      49.28314700      50.17218993
H       48.98512780      47.42381600      50.29184901
H       46.79015176      48.41488491      50.01343917
H       46.53282456      51.00943290      49.74914610
H       48.60983385      52.31034489      49.51663601
H       50.84317969      52.61730685      49.87773006
H       53.23723663      51.51250982      49.76269197
H       53.54643124      49.22090666      50.23977496
H       51.51942999      47.67595155      50.50837669
