18
Lattice="100.0 0.0 0.0 0.0 100.0 0.0 0.0 0.0 100.0" Properties=species:S:1:pos:R:3 Energy=-241651.28125 Energy_pyscf=-241647.8038513841 Energy_nn=-241650.53125 pbc="F F F"
C       48.91815611      48.51425053      50.23679433
C       47.62797835      49.08505442      50.07419514
C       47.45649039      50.47041469      49.83810755
C       48.60635077      51.25720429      49.83375424
C       49.95309363      50.72507943      50.02296899
C       51.09677652      51.51747523      49.95453669
C       52.40656355      50.85963152      49.95065966
C       52.55342684      49.47498771      50.13937588
C       51.36599857      48.67464840      50.32952084
C       50.13230372      49.29802496      50.12965876
H       49.18298070      47.43477309      50.14430158
H       46.81709750      48.35127628      50.04442860
H       46.42308678      50.88836872      49.72372767
H       48.48934960      52.30510815      49.65535044
H       50.91829535      52.57626553      49.69669954
H       53.33792991      51.41052722      49.90211072
H       53.53059068      49.00313251      50.21181900
H       51.43217856      47.61594860      50.40303546
