18
Lattice="100.0 0.0 0.0 0.0 100.0 0.0 0.0 0.0 100.0" Properties=species:S:1:pos:R:3 Energy=-241634.609375 Energy_pyscf=-241637.32851925713 Energy_nn=-241635.546875 pbc="F F F"
C       48.93104707      48.48224075      50.23626201
C       47.64086528      48.96548060      50.08368841
C       47.53341697      50.38950688      50.05548094
C       48.60343794      51.25049056      49.81552668
C       49.93977192      50.67929889      49.89118661
C       51.11101341      51.42050964      49.94976834
C       52.39728184      50.83162279      50.12630082
C       52.48563479      49.46629674      50.41866480
C       51.40459081      48.70878842      50.36057107
C       50.13766176      49.27559703      50.11673375
H       49.10853025      47.35118611      50.12903578
H       46.71475298      48.28984745      50.16721105
H       46.62790942      50.83354571      49.81000328
H       48.47302773      52.27514456      49.52107919
H       50.97989104      52.47219267      50.01424085
H       53.32942687      51.42695984      50.34058119
H       53.50001627      49.04503740      50.47533104
H       51.37586528      47.66458858      50.39501039
