18
Lattice="100.0 0.0 0.0 0.0 100.0 0.0 0.0 0.0 100.0" Properties=species:S:1:pos:R:3 Energy=-241658.484375 Energy_pyscf=-241651.6413704766 Energy_nn=-241653.53125 pbc="F F F"
C       48.89675662      48.51424756      50.21128533
C       47.64542883      49.10176719      50.03674876
C       47.45838120      50.51377722      49.88194025
C       48.60554137      51.27847335      49.77851758
C       49.89842281      50.70928504      50.05813322
C       51.03065547      51.55101514      49.94945954
C       52.26723173      50.97995721      50.01642323
C       52.52492013      49.59957595      50.25140980
C       51.40495797      48.76059972      50.35315309
C       50.10458555      49.26202006      50.16099543
H       49.02230756      47.43591291      50.27668673
H       46.76083138      48.39193058      50.01476640
H       46.53406348      50.99808376      49.71604934
H       48.62453911      52.31493406      49.56981317
H       50.94948381      52.66027500      49.81358669
H       53.15940798      51.48980647      49.75539110
H       53.54430650      49.21002707      50.28952395
H       51.49346412      47.63108167      50.47592268
