18
Lattice="100.0 0.0 0.0 0.0 100.0 0.0 0.0 0.0 100.0" Properties=species:S:1:pos:R:3 Energy=-241641.078125 Energy_pyscf=-241642.81821387296 pbc="F F F"
C       48.87187939      48.49522963      50.23055550
C       47.63604209      49.09469968      50.06362425
C       47.50944712      50.50886451      49.88712473
C       48.57020024      51.31285009      49.76242407
C       49.91739584      50.71538196      50.05526936
C       51.05694782      51.51788215      49.91074446
C       52.29103878      50.93290374      49.99641290
C       52.44261445      49.58385951      50.25189425
C       51.41818847      48.75305344      50.30570347
C       50.08836845      49.21871010      50.17937290
H       48.92618446      47.39983540      50.32154166
H       46.78278581      48.43734331      49.93499071
H       46.53575238      51.02263634      49.75943332
H       48.44018298      52.42527483      49.50543178
H       50.98983164      52.61251633      49.87573957
H       53.15996198      51.45444954      49.74422421
H       53.50540545      49.24842950      50.29711446
H       51.71716721      47.68339502      50.51905576
