18
Lattice="100.0 0.0 0.0 0.0 100.0 0.0 0.0 0.0 100.0" Properties=species:S:1:pos:R:3 Energy=-241649.65625 Energy_pyscf=-241646.19679157573 Energy_nn=-241648.734375 pbc="F F F"
C       48.98713350      48.48082400      50.14106938
C       47.72096620      49.07867243      49.96791561
C       47.54760487      50.47862206      49.88699017
C       48.69282388      51.27596173      49.73905550
C       50.04876941      50.76676115      49.85243307
C       51.29878064      51.54400255      49.72383025
C       52.51785369      50.97543106      49.96069160
C       52.66591762      49.58726769      50.28840337
C       51.46126806      48.81343258      50.31557699
C       50.19328122      49.32904653      50.00283697
H       49.06154218      47.41207515      50.13565623
H       46.85737545      48.42333695      50.11593973
H       46.49968148      50.81777155      49.70481806
H       48.69268342      52.41295806      49.79235118
H       51.31428381      52.62337101      49.49740387
H       53.46355236      51.50756020      49.71686890
H       53.61601882      49.05919695      50.18109824
H       51.59695506      47.72357096      50.48481241
