18
Lattice="100.0 0.0 0.0 0.0 100.0 0.0 0.0 0.0 100.0" Properties=species:S:1:pos:R:3 Energy=-241653.765625 Energy_pyscf=-241651.00200477047 Energy_nn=-241652.515625 pbc="F F F"
C       48.85643428      48.44035767      50.18255121
C       47.57168245      48.99088786      50.01711549
C       47.46150424      50.36358615      49.71349668
C       48.59514861      51.13825558      49.65553677
C       49.87135168      50.61597179      49.96406820
C       51.06109914      51.46121493      49.97909676
C       52.25929881      50.90136587      50.05004672
C       52.42258427      49.49060671      50.05143846
C       51.31055488      48.63844858      50.26907855
C       50.01117536      49.21126037      50.13811131
H       48.85133639      47.37334261      50.55906735
H       46.62652137      48.47433023      50.24748307
H       46.49559986      50.76379851      49.48134802
H       48.57474824      52.23460740      49.47775382
H       50.94826711      52.54475837      49.84143989
H       53.07137398      51.62458416      50.01283472
H       53.43289336      49.03503009      49.94753054
H       51.34961688      47.57579263      50.32542775
