18
Lattice="100.0 0.0 0.0 0.0 100.0 0.0 0.0 0.0 100.0" Properties=species:S:1:pos:R:3 Energy=-241621.5 Energy_pyscf=-241616.9565918943 Energy_nn=-241622.828125 pbc="F F F"
C       48.92383997      48.55614202      50.16791619
C       47.68332474      49.05568329      49.90700202
C       47.50707204      50.45694821      49.75244547
C       48.60081894      51.26617390      49.54769596
C       49.97314163      50.65362759      49.58249392
C       51.02475479      51.46011358      49.76041627
C       52.31825229      50.82075006      50.05325354
C       52.45576771      49.42957708      49.99742585
C       51.32915771      48.63089454      49.87277858
C       50.05521637      49.24331127      49.80190126
H       49.11201359      47.59571616      50.47035180
H       46.85837039      48.30731792      49.77418789
H       46.44742978      50.67370057      49.89035878
H       48.65218365      52.34747024      49.51284194
H       50.99086376      52.63633306      49.73579551
H       53.12813143      51.40566493      50.19349461
H       53.50585753      49.18480825      49.97054536
H       51.44842809      47.64381274      50.02876312
