18
Lattice="100.0 0.0 0.0 0.0 100.0 0.0 0.0 0.0 100.0" Properties=species:S:1:pos:R:3 Energy=-241631.078125 Energy_pyscf=-241632.42765893982 Energy_nn=-241632.71875 pbc="F F F"
C       48.82890226      48.47813809      50.14417798
C       47.60459405      48.97606946      49.90923628
C       47.51046867      50.47950176      49.66447895
C       48.61984407      51.24041445      49.57212746
C       49.90913313      50.68961908      49.76113994
C       51.01856346      51.52269485      49.78377848
C       52.32549798      50.94425624      49.89120616
C       52.40461439      49.54163306      50.02161261
C       51.27595889      48.70605822      50.08564179
C       49.99667622      49.24875257      50.04354805
H       48.89957488      47.36013218      50.34943936
H       46.70849265      48.49046922      49.93973342
H       46.61579802      51.11742539      49.72052627
H       48.53080386      52.25812067      49.54907048
H       50.99230889      52.67173936      49.87487874
H       53.31331089      51.62638201      49.96070952
H       53.40588779      48.99872029      49.86798155
H       51.55816616      47.56984150      50.08088236
