18
Lattice="100.0 0.0 0.0 0.0 100.0 0.0 0.0 0.0 100.0" Properties=species:S:1:pos:R:3 Energy=-241639.265625 Energy_pyscf=-241639.16958440383 pbc="F F F"
C       48.87783475      48.48542060      50.25475703
C       47.68871167      49.18270157      49.94591278
C       47.59498415      50.54767103      49.65301271
C       48.69270443      51.29601551      49.82460669
C       49.94677589      50.76205094      50.16279120
C       51.10375119      51.54224526      50.10663227
C       52.32265485      50.99010871      49.94078571
C       52.53242103      49.64255296      50.09902651
C       51.38931466      48.77858243      50.28200136
C       50.03974499      49.31887099      50.33645167
H       49.06100439      47.39065951      50.24618065
H       46.67695943      48.70572456      49.91916100
H       46.52831368      50.91743253      49.60603108
H       48.58793879      52.39169026      49.73301186
H       50.85851631      52.58644660      49.97382374
H       53.21199240      51.64675721      49.80781331
H       53.39339177      49.07127484      49.96754587
H       51.42652713      47.67397428      50.26552707
