18
Lattice="100.0 0.0 0.0 0.0 100.0 0.0 0.0 0.0 100.0" Properties=species:S:1:pos:R:3 Energy=-241643.90625 Energy_pyscf=-241646.78776109652 pbc="F F F"
C       48.86928245      48.51287749      50.21473824
C       47.66587634      49.08061969      50.06684306
C       47.48476719      50.54517548      49.86148545
C       48.61802884      51.29034188      49.72037961
C       49.90874484      50.74711246      50.11470063
C       51.05771765      51.54577639      49.96668886
C       52.29711511      50.96619440      49.97568868
C       52.49579885      49.61554426      50.23428957
C       51.37599785      48.73414144      50.30948369
C       50.06018175      49.26124730      50.21418797
H       48.91878803      47.43695691      50.29101340
H       46.86955374      48.34706511      49.98271451
H       46.51341931      51.00292044      49.74634858
H       48.50565107      52.38509697      49.51473188
H       50.91619536      52.66863799      49.89226414
H       53.19995626      51.46391877      49.72138845
H       53.52881313      49.18767121      50.29448145
H       51.59476145      47.66707328      50.49375169
