18
Lattice="100.0 0.0 0.0 0.0 100.0 0.0 0.0 0.0 100.0" Properties=species:S:1:pos:R:3 Energy=-241629.84375 Energy_pyscf=-241628.13223082884 Energy_nn=-241631.140625 pbc="F F F"
C       48.88683991      48.46400540      50.38300172
C       47.67009103      49.03966184      50.16066525
C       47.56414791      50.46716131      49.86973701
C       48.62689920      51.24106353      49.80854951
C       49.93075919      50.72229916      49.86298465
C       51.06632574      51.51171098      49.88986674
C       52.41178422      50.92674081      50.23649692
C       52.47611733      49.49413999      50.26474902
C       51.32083245      48.77091361      50.20180259
C       49.98913667      49.32690602      50.13686873
H       49.03006048      47.35303499      50.66633705
H       46.69407890      48.46456890      50.40276830
H       46.61278861      50.84608320      50.15478349
H       48.58960331      52.29746950      49.38108600
H       51.07408417      52.55729554      49.77726044
H       53.23364501      51.57943569      50.24410180
H       53.46903331      48.92840745      50.38768990
H       51.27316047      47.65093483      50.07860070
