18
Lattice="100.0 0.0 0.0 0.0 100.0 0.0 0.0 0.0 100.0" Properties=species:S:1:pos:R:3 Energy=-241633.28125 Energy_pyscf=-241631.37924096495 Energy_nn=-241634.3125 pbc="F F F"
C       48.75301979      48.55196012      50.20681867
C       47.49916662      49.03897589      49.82248852
C       47.39102258      50.43259574      49.74219421
C       48.51432343      51.21499069      49.69062036
C       49.79631412      50.66682750      49.95608837
C       50.92782586      51.47523929      49.93811702
C       52.19085158      50.83217215      49.92780318
C       52.33075828      49.45661994      49.99224377
C       51.29617345      48.62170353      50.32830195
C       50.00857865      49.28742865      50.21030725
H       48.81949984      47.49457824      50.22289719
H       46.58531756      48.46230973      49.55221772
H       46.51011204      51.02459230      49.62761443
H       48.62970863      52.32808376      49.55865520
H       50.82452773      52.63576510      49.91068008
H       52.95750297      51.63419375      49.66699605
H       53.40905759      48.97238889      49.84529786
H       51.32040346      47.60175767      50.55808009
