18
Lattice="100.0 0.0 0.0 0.0 100.0 0.0 0.0 0.0 100.0" Properties=species:S:1:pos:R:3 Energy=-241630.34375 Energy_pyscf=-241629.4247030103 pbc="F F F"
C       48.84751327      48.50208300      50.08541130
C       47.54794505      49.02688213      49.91332582
C       47.44569862      50.43667175      49.75200569
C       48.54037432      51.30560280      49.55163756
C       49.88176832      50.78350980      49.91281020
C       51.07161333      51.49106260      49.84362909
C       52.35563338      50.92096441      49.85568091
C       52.52347482      49.51249686      50.14767114
C       51.39374536      48.75621202      50.24037227
C       49.99299270      49.30430565      50.03428561
H       48.96499383      47.42283163      50.07345295
H       46.63629936      48.66490327      50.23343896
H       46.50455676      50.91037160      49.93731090
H       48.27641352      52.35203190      49.29327534
H       51.19738618      52.57208599      49.70888998
H       53.32290401      51.46700653      49.81165424
H       53.43072367      49.17446364      50.55768107
H       51.44154855      47.65524210      50.62468530
