18
Lattice="100.0 0.0 0.0 0.0 100.0 0.0 0.0 0.0 100.0" Properties=species:S:1:pos:R:3 Energy=-241627.03125 Energy_pyscf=-241625.84708366863 Energy_nn=-241628.59375 pbc="F F F"
C       48.84495846      48.47647518      49.86352869
C       47.62085944      49.10366267      50.09411361
C       47.58782918      50.50727104      49.89972619
C       48.62111395      51.24360214      49.41881871
C       49.87516062      50.69419125      49.57577560
C       51.00692785      51.45919948      49.63582461
C       52.27394585      51.05235729      49.98805490
C       52.42723645      49.61156619      50.13965484
C       51.31853073      48.76156133      50.07685992
C       50.04032613      49.22043195      49.76232838
H       48.74731822      47.37653699      49.58542720
H       46.77519558      48.68169181      50.48418149
H       46.70095326      51.11944482      49.86582462
H       48.42911400      52.31814928      49.28002944
H       50.87541674      52.53414761      49.38403429
H       53.21724273      51.58569503      50.18361453
H       53.46394124      49.04554839      50.33799070
H       51.51020743      47.76009092      50.45869755
