18
Lattice="100.0 0.0 0.0 0.0 100.0 0.0 0.0 0.0 100.0" Properties=species:S:1:pos:R:3 Energy=-241635.25 Energy_pyscf=-241638.64694338615 pbc="F F F"
C       48.92617642      48.48748582      50.14295441
C       47.71637652      49.18689750      50.18755286
C       47.61457650      50.51899609      49.88690940
C       48.77692853      51.25638290      49.56398724
C       50.01157570      50.63879157      49.68032867
C       51.13115393      51.54068638      49.77312472
C       52.41596123      51.03269155      50.12529559
C       52.52697262      49.52594304      50.20872824
C       51.38505361      48.66606131      50.18639565
C       50.13233806      49.24556983      49.93495921
H       49.08903655      47.41360516      50.24397846
H       46.85702450      48.62669718      50.47830972
H       46.64650181      50.99450318      50.00644874
H       48.94118344      52.37354367      49.54172437
H       50.95481560      52.56599778      49.46498124
H       53.32239376      51.66277261      50.29990697
H       53.48651450      48.96262596      50.19050818
H       51.59942514      47.57881478      50.06685173
