18
Lattice="100.0 0.0 0.0 0.0 100.0 0.0 0.0 0.0 100.0" Properties=species:S:1:pos:R:3 Energy=-241614.15625 Energy_pyscf=-241608.1723145599 Energy_nn=-241614.484375 pbc="F F F"
C       48.97042084      48.64847526      50.10351164
C       47.72616921      49.11718797      50.18633879
C       47.59875984      50.48206671      49.70717540
C       48.61416480      51.38748174      49.74664121
C       49.90413849      50.77290983      49.82720071
C       51.25983426      51.53260301      49.69146072
C       52.44243344      50.97434567      50.05365429
C       52.53453542      49.60826343      50.21978075
C       51.44325566      48.82723877      49.95409831
C       50.10105365      49.36944654      49.88967989
H       49.23270592      47.61412082      50.13175602
H       46.74724351      48.66517136      50.57667471
H       46.54204496      50.89456717      49.52382713
H       48.15300471      52.22775787      49.24040972
H       51.00203423      52.51857326      49.27420344
H       53.26399373      51.67398315      50.28328457
H       53.52221999      49.20597421      50.46155481
H       51.52511572      47.76561578      49.92863115
