18
Lattice="100.0 0.0 0.0 0.0 100.0 0.0 0.0 0.0 100.0" Properties=species:S:1:pos:R:3 Energy=-241657.390625 Energy_pyscf=-241651.43306750475 Energy_nn=-241651.421875 pbc="F F F"
C       48.89117207      48.57095040      50.14695934
C       47.62302913      49.08605483      50.05807848
C       47.50723362      50.50197071      49.86891993
C       48.63993592      51.23137357      49.66116455
C       49.91709640      50.72580364      49.88870880
C       51.06799471      51.58562858      49.87067001
C       52.30781522      51.04301102      50.07233326
C       52.47171603      49.58785736      50.16176400
C       51.38498799      48.74085570      50.13319203
C       50.10703693      49.29178467      49.98302360
H       49.05789291      47.52094722      50.41031150
H       46.71738859      48.54131392      50.35669439
H       46.48948211      50.89609609      49.77092919
H       48.64762313      52.31962799      49.58128721
H       50.82011422      52.58591764      49.63054109
H       53.15616246      51.74060577      50.14349846
H       53.46936723      49.11506568      50.20116821
H       51.50523685      47.64786506      50.18650798
