18
Lattice="100.0 0.0 0.0 0.0 100.0 0.0 0.0 0.0 100.0" Properties=species:S:1:pos:R:3 Energy=-241654.109375 Energy_pyscf=-241652.23695791105 Energy_nn=-241652.609375 pbc="F F F"
C       48.99082001      48.48928971      50.17088969
C       47.71764458      49.01671019      50.01212010
C       47.59382216      50.37884562      49.75354077
C       48.67653429      51.25187388      49.75217751
C       49.97271235      50.75224681      49.89527711
C       51.16712839      51.49318823      49.81000435
C       52.46692697      50.89129233      49.94356239
C       52.57454735      49.46941141      50.10433729
C       51.47633651      48.64586434      50.16956915
C       50.14010197      49.28351796      50.11861329
H       49.18020225      47.40158891      50.26384716
H       46.86938082      48.31810239      49.99548724
H       46.55122369      50.73792089      49.66217706
H       48.61940248      52.34405183      49.52971074
H       51.20201134      52.61005474      49.70045160
H       53.39675042      51.41167991      50.13394426
H       53.56571829      49.03805241      50.26117384
H       51.54184015      47.62100068      50.52048075
