18
Lattice="100.0 0.0 0.0 0.0 100.0 0.0 0.0 0.0 100.0" Properties=species:S:1:pos:R:3 Energy=-241656.1875 Energy_pyscf=-241649.17440872465 Energy_nn=-241652.421875 pbc="F F F"
C       48.86620250      48.48950512      50.20191097
C       47.64794074      49.07089910      50.04005970
C       47.47858557      50.51485320      49.82008770
C       48.63190269      51.31216053      49.76866334
C       49.90435412      50.74566662      50.04763892
C       51.02956457      51.55997176      50.06531671
C       52.32958754      50.94441361      49.98442472
C       52.49930209      49.58713188      50.24406034
C       51.41987328      48.73844584      50.35016791
C       50.10147972      49.27838259      50.20455675
H       49.02304603      47.39004683      50.31463177
H       46.69220081      48.45817154      49.99390992
H       46.48118192      51.02217941      49.74880554
H       48.52803434      52.29686659      49.54492140
H       50.91417240      52.61200799      49.79408665
H       53.22141375      51.53209731      49.71735774
H       53.53894722      49.19665989      50.29130788
H       51.56022392      47.64483105      50.49582691
