18
Lattice="100.0 0.0 0.0 0.0 100.0 0.0 0.0 0.0 100.0" Properties=species:S:1:pos:R:3 Energy=-241646.0625 Energy_pyscf=-241642.78048776658 Energy_nn=-241645.234375 pbc="F F F"
C       48.89263709      48.49091959      50.17083860
C       47.62994638      49.00144084      49.89949688
C       47.49021447      50.38978912      49.75715403
C       48.56336286      51.26817202      49.57341201
C       49.87583947      50.69184351      49.62256887
C       51.10364587      51.49126517      49.81774823
C       52.30331384      50.84736443      50.01361022
C       52.50279207      49.48515180      49.94716870
C       51.37295702      48.75944266      50.00279003
C       50.09441648      49.29230036      49.87217410
H       49.12405277      47.42299687      50.44310752
H       46.79925487      48.31599540      49.81707527
H       46.46812116      50.82851637      49.79767579
H       48.46061478      52.34714029      49.49382379
H       51.04910414      52.56155425      49.75994056
H       53.21256410      51.47257553      50.13908450
H       53.54871861      49.00094662      50.03162515
H       51.47117121      47.67685231      49.92452671
