18
Lattice="100.0 0.0 0.0 0.0 100.0 0.0 0.0 0.0 100.0" Properties=species:S:1:pos:R:3 Energy=-241627.72280144767 pbc="F F F"
C       49.01230230      48.52275029      50.14322884
C       47.68709124      49.03112918      50.04989742
C       47.60076669      50.49014993      49.97620139
C       48.71789926      51.22565276      49.74481317
C       50.07528924      50.68947806      49.81498600
C       51.41331457      51.38212711      49.85152947
C       52.60141574      50.76698401      50.06576993
C       52.64508217      49.32930573      50.20407493
C       51.42722606      48.69569124      50.31400109
C       50.14509998      49.30427046      50.04632252
H       49.17326809      47.46190654      50.30113454
H       46.72561234      48.37957510      50.14900017
H       46.54065052      50.94494749      49.96837128
H       48.60733416      52.34928658      49.39705223
H       51.63354893      52.53809346      49.91467388
H       53.39071169      51.48573652      50.28068106
H       53.45934948      48.60264063      50.34924630
H       51.16496167      47.59822194      50.60294777
