18
Lattice="100.0 0.0 0.0 0.0 100.0 0.0 0.0 0.0 100.0" Properties=species:S:1:pos:R:3 Energy=-241641.92980852438 pbc="F F F"
C       48.64292566      48.54604892      50.26551371
C       47.52325932      49.30491575      50.23644373
C       47.48646868      50.66215577      49.90251867
C       48.69391401      51.32232973      49.92590476
C       49.87440151      50.63402219      50.00108345
C       51.04344299      51.47682881      49.98938704
C       52.34174341      50.97947000      50.18047866
C       52.48095355      49.57654903      50.27200558
C       51.34105359      48.70581333      50.40239689
C       49.94482513      49.24952046      50.17330031
H       48.61534494      47.46666785      50.36166443
H       46.60745127      48.77494064      50.27381423
H       46.51406963      51.13783461      49.73445057
H       48.87428537      52.36975213      49.59760311
H       50.83933552      52.53333215      49.93006751
H       53.24403908      51.64603840      50.18571482
H       53.48593037      49.13654716      50.34517615
H       51.49319260      47.59148985      50.37693678
