18
Lattice="100.0 0.0 0.0 0.0 100.0 0.0 0.0 0.0 100.0" Properties=species:S:1:pos:R:3 Energy=-241624.3959617469 pbc="F F F"
C       48.85666780      48.56226005      50.44098422
C       47.67728725      49.05779761      50.13670129
C       47.57724683      50.36837958      49.74310884
C       48.60319552      51.27086048      49.86641763
C       49.95065800      50.71953766      50.15886447
C       51.16553871      51.38928308      50.09700568
C       52.37622293      50.77194796      50.07968863
C       52.32606408      49.32695622      50.09704388
C       51.15905233      48.64532972      50.33856043
C       49.98586654      49.33340300      50.27881798
H       48.96712101      47.50644225      50.63002879
H       46.85538053      48.43557753      50.06832600
H       46.63232667      50.88108477      49.36997121
H       48.57429000      52.31474977      49.70499183
H       51.01996546      52.49355775      50.10692256
H       53.27170124      51.56988060      50.14589346
H       53.36767333      48.96463055      49.87999325
H       51.06444935      47.56860084      50.52057515
