18
Lattice="100.0 0.0 0.0 0.0 100.0 0.0 0.0 0.0 100.0" Properties=species:S:1:pos:R:3 Energy=-241631.21139147758 pbc="F F F"
C       48.90263530      48.48211384      50.16717089
C       47.70997831      48.99242849      49.87812468
C       47.57336395      50.36529572      49.70066207
C       48.75548777      51.19842544      49.82953055
C       50.11780891      50.60728307      49.96807776
C       51.30555292      51.42880405      49.80616221
C       52.54071310      50.77713602      49.82670307
C       52.51577682      49.27712741      50.08075170
C       51.33194184      48.53182989      50.27115866
C       50.10398923      49.23122713      50.14793886
H       49.12120848      47.53602326      50.46194031
H       46.75959078      48.53978429      49.88848628
H       46.56194503      50.81952942      49.53805969
H       48.46782584      52.28854932      49.76346633
H       51.24210546      52.52261006      49.68891162
H       53.36901134      51.45078310      49.62597934
H       53.43805497      48.67914756      49.87364324
H       51.29980414      47.47738994      50.34514759
