18
Lattice="100.0 0.0 0.0 0.0 100.0 0.0 0.0 0.0 100.0" Properties=species:S:1:pos:R:3 Energy=-241631.4366355107 pbc="F F F"
C       48.68879791      48.51887893      50.20479216
C       47.49390823      49.25225567      49.97085187
C       47.48744348      50.65911721      49.72007116
C       48.64461816      51.47294081      49.70837847
C       49.85753692      50.80689023      50.03735953
C       51.10227678      51.58188949      49.95418652
C       52.33081587      50.95281801      49.92322867
C       52.41598950      49.57590612      49.98820008
C       51.27682765      48.77141762      50.31365142
C       49.92090058      49.32399284      50.16630471
H       48.67022407      47.36253259      50.10688154
H       46.70592851      48.74896657      49.54646674
H       46.60330094      51.08166168      49.35812105
H       48.62868069      52.49521674      49.34995023
H       51.15562617      52.63746741      49.72265573
H       53.09738424      51.62552552      49.83034726
H       53.39669906      49.16479122      49.98001876
H       51.42591765      47.70033529      50.65004977
