18
Lattice="100.0 0.0 0.0 0.0 100.0 0.0 0.0 0.0 100.0" Properties=species:S:1:pos:R:3 Energy=-241635.14650248832 pbc="F F F"
C       48.81607398      48.56942229      50.11390240
C       47.64900158      49.18513300      50.18367306
C       47.54375915      50.54460621      50.01739030
C       48.68266124      51.27146664      49.80556208
C       49.92602722      50.64301330      49.97261270
C       51.14187744      51.46705867      49.80278662
C       52.31191089      50.87476921      50.13881454
C       52.48094117      49.40465149      50.33270698
C       51.27935368      48.64860710      50.35620163
C       50.02484871      49.25085742      50.08666869
H       48.63941312      47.49539569      50.18378742
H       46.70906863      48.62975666      50.19950898
H       46.52513458      51.04309733      50.04466138
H       48.62118773      52.37412785      49.70311503
H       50.98367710      52.50460431      49.38777021
H       53.33840010      51.33507551      50.07902334
H       53.47486542      48.84503314      50.56457968
H       51.08965430      47.57253230      50.61222979
