18
Lattice="100.0 0.0 0.0 0.0 100.0 0.0 0.0 0.0 100.0" Properties=species:S:1:pos:R:3 Energy=-241632.0890635805 pbc="F F F"
C       48.84876204      48.46488077      49.88316853
C       47.57784341      48.99330157      49.92378209
C       47.51066949      50.41490478      49.87586685
C       48.61580780      51.17776257      49.59215418
C       49.92286231      50.57975027      49.55789986
C       51.14611395      51.32091145      49.58610104
C       52.39300866      50.70477329      49.85817722
C       52.43884464      49.31561077      50.23234045
C       51.23809108      48.52085762      50.05948399
C       50.02090712      49.14486199      49.80770372
H       48.87512709      47.41267498      50.03570761
H       46.76483145      48.34819680      49.84184031
H       46.57133326      50.87476401      49.90231486
H       48.51706296      52.30588403      49.33857038
H       51.06800408      52.58732502      49.66771487
H       53.32655217      51.26343711      49.90406808
H       53.42866674      48.93072498      50.66142962
H       51.16407069      47.45585400      50.52000214
