18
Lattice="100.0 0.0 0.0 0.0 100.0 0.0 0.0 0.0 100.0" Properties=species:S:1:pos:R:3 Energy=-241629.16606103987 pbc="F F F"
C       48.88704276      48.57398070      50.33267039
C       47.61460740      49.22390444      50.17929579
C       47.59784700      50.67737550      49.93062410
C       48.82401186      51.39591648      49.72910218
C       50.06053236      50.73624487      49.91873176
C       51.22363859      51.53222609      49.98271552
C       52.38920613      50.97284673      50.18517306
C       52.49514128      49.54985027      50.24467042
C       51.34265693      48.80260229      50.18920383
C       50.07483360      49.37565948      50.12759488
H       49.02944909      47.46126907      50.37901079
H       46.54530452      48.87884436      50.48820808
H       46.66746067      51.27145292      50.17052930
H       48.91023726      52.45381846      49.51179192
H       50.92901674      52.53873093      50.03871111
H       53.18276093      51.65927463      50.25754519
H       53.45469548      49.04091928      50.21645715
H       51.60728765      47.81118716      50.37574937
