18
Lattice="100.0 0.0 0.0 0.0 100.0 0.0 0.0 0.0 100.0" Properties=species:S:1:pos:R:3 Energy=-241630.58260690616 pbc="F F F"
C       48.89498487      48.54154895      49.94704789
C       47.65428644      49.07470073      49.93947359
C       47.60820854      50.40797236      49.82619693
C       48.69285743      51.22172248      49.57855378
C       50.06307059      50.66040230      49.50347684
C       51.18567142      51.48648271      49.63268467
C       52.46652396      50.75664080      49.85123626
C       52.43433116      49.35812254      50.19699603
C       51.31652106      48.51409154      50.05011780
C       50.08937615      49.23129904      49.75491331
H       49.00322699      47.47370861      50.05993138
H       46.74371375      48.44905499      49.91210297
H       46.60235910      50.81039358      49.92468882
H       48.44702429      52.23440743      49.37505027
H       51.14550110      52.60373042      49.65954444
H       53.39764090      51.21834526      50.10854324
H       53.31380176      49.00701961      50.62494973
H       51.35043585      47.39626958      50.14669907
