18
Lattice="100.0 0.0 0.0 0.0 100.0 0.0 0.0 0.0 100.0" Properties=species:S:1:pos:R:3 Energy=-241635.07195289945 pbc="F F F"
C       48.97795771      48.52370128      50.33145928
C       47.73814695      49.05370930      49.95073654
C       47.56415139      50.46765946      49.86825649
C       48.75544231      51.29524289      49.86562626
C       50.00973426      50.73433993      50.11172285
C       51.30911617      51.44516348      50.03927909
C       52.49506367      50.71454226      49.88596023
C       52.51982484      49.35946342      50.20065480
C       51.32865678      48.72666927      50.38115885
C       50.11273967      49.33695257      50.25175145
H       49.24874572      47.49216398      50.29332062
H       46.84937537      48.37890270      49.91460921
H       46.51349981      50.78794508      49.61834231
H       48.46174835      52.37102902      49.96160995
H       51.48073251      52.50783602      50.02153577
H       53.47485013      51.08646458      49.44922167
H       53.48650019      48.78471467      50.21047212
H       51.32330146      47.64654519      50.55077833
