18
Lattice="100.0 0.0 0.0 0.0 100.0 0.0 0.0 0.0 100.0" Properties=species:S:1:pos:R:3 Energy=-241645.38340063844 pbc="F F F"
C       48.65263369      48.54467810      50.23727249
C       47.48475830      49.28495503      50.18874991
C       47.46452360      50.70543693      49.84300462
C       48.67265937      51.37185345      49.85008394
C       49.92337564      50.69567500      50.04021247
C       51.05032081      51.46949986      49.98366190
C       52.29913306      50.99910998      50.07911316
C       52.48280449      49.61421114      50.24722700
C       51.31249558      48.71957554      50.33398429
C       49.94925750      49.23746701      50.15558853
H       48.64304033      47.45295636      50.34986493
H       46.52539396      48.68556162      50.12587586
H       46.50539851      51.21833845      49.79983779
H       48.84348397      52.40712749      49.58303314
H       50.85503666      52.54704364      49.84576476
H       53.14338059      51.64556474      50.13668939
H       53.49460149      49.24669378      50.41696686
H       51.44837879      47.65889550      50.39528368
