18
Lattice="100.0 0.0 0.0 0.0 100.0 0.0 0.0 0.0 100.0" Properties=species:S:1:pos:R:3 Energy=-241642.07834720123 pbc="F F F"
C       48.83372640      48.43824783      50.08881572
C       47.65254076      49.04315950      50.10289569
C       47.52733745      50.37519805      49.85291442
C       48.73360454      51.14929448      49.65278172
C       50.04149126      50.62593229      49.80212082
C       51.24331371      51.41138229      49.85744679
C       52.45195660      50.75266498      49.96880702
C       52.49449249      49.30287613      50.16612733
C       51.29843136      48.52708754      50.25518987
C       50.07939694      49.15779311      49.92973217
H       49.00124309      47.37799852      50.33115628
H       46.79416918      48.42199217      50.28047494
H       46.51282640      50.72121376      49.83556957
H       48.51102248      52.20964410      49.44001819
H       51.18725970      52.62200148      49.81981308
H       53.37782536      51.28221697      49.98897799
H       53.48717360      48.74264576      50.34223998
H       51.33611984      47.43619788      50.55998181
