18
Lattice="100.0 0.0 0.0 0.0 100.0 0.0 0.0 0.0 100.0" Properties=species:S:1:pos:R:3 Energy=-241631.93395505263 pbc="F F F"
C       48.79596754      48.61359913      50.10939699
C       47.64549209      49.31686804      49.88622145
C       47.54270163      50.63055819      49.85159659
C       48.65664867      51.37889206      49.92406817
C       49.92109027      50.83140882      50.00970602
C       51.06793803      51.55163651      49.72766780
C       52.32002287      50.90326190      49.86991604
C       52.39766797      49.55048468      50.23449888
C       51.28027012      48.74976759      50.36755378
C       50.02121215      49.34778157      50.11868801
H       48.74392835      47.51011593      50.03957921
H       46.72075168      48.72644749      49.85000119
H       46.58714080      50.93056308      49.60720218
H       48.32719569      52.37582926      49.72632455
H       50.91778319      52.48988407      49.30132473
H       53.26121712      51.49308962      49.75381247
H       53.41285920      49.05988344      50.24849877
H       51.34736907      47.68546088      50.69867527
