18
Lattice="100.0 0.0 0.0 0.0 100.0 0.0 0.0 0.0 100.0" Properties=species:S:1:pos:R:3 Energy=-241638.6895377057 pbc="F F F"
C       48.83491812      48.54261041      50.03513454
C       47.59838958      49.24910951      50.16146053
C       47.48729613      50.69826442      49.93214379
C       48.68205828      51.36755776      49.74241197
C       49.88970850      50.72759392      49.77560359
C       51.01618831      51.47804084      49.81423633
C       52.29961387      50.90701970      50.09680642
C       52.43683470      49.48743053      50.22602843
C       51.26103015      48.76301203      50.29662337
C       50.01403120      49.28996549      50.02793518
H       48.88439443      47.42802891      50.12863629
H       46.75597994      48.57738015      50.44043162
H       46.54414751      51.35711009      50.10485960
H       48.85580549      52.46092296      49.51794868
H       50.81453133      52.57197109      49.65025495
H       53.09276899      51.64166849      50.10537446
H       53.45585249      49.06524666      50.19037078
H       51.32852668      47.66102542      50.48205132
