18
Lattice="100.0 0.0 0.0 0.0 100.0 0.0 0.0 0.0 100.0" Properties=species:S:1:pos:R:3 Energy=-241632.64211474825 pbc="F F F"
C       48.85283542      48.60127789      50.20386481
C       47.56684499      49.05644916      49.94624962
C       47.49315968      50.56643531      49.75786287
C       48.62946150      51.33101918      49.87459861
C       49.96158203      50.79459236      50.09185602
C       51.18044796      51.41826992      49.86808504
C       52.49428639      50.84816807      49.95555930
C       52.50086881      49.39057376      50.07981892
C       51.26045910      48.77733216      50.33757278
C       50.04989760      49.37849204      50.30145198
H       48.92938275      47.52767694      50.28412689
H       46.83205357      48.38214000      49.58556834
H       46.57156271      51.04111258      49.61336248
H       48.51280890      52.38745458      49.74108941
H       50.97007325      52.47232306      49.45675182
H       53.42843729      51.37286717      49.72273047
H       53.40642458      48.80111754      50.03896943
H       51.04076228      47.73897707      50.54324818
