18
Lattice="100.0 0.0 0.0 0.0 100.0 0.0 0.0 0.0 100.0" Properties=species:S:1:pos:R:3 Energy=-241637.91122948148 pbc="F F F"
C       48.96760102      48.55351737      50.28233436
C       47.68223746      49.11663789      50.09108043
C       47.51599651      50.45315966      49.75784883
C       48.72246872      51.21646916      49.66235321
C       49.99316957      50.62515261      49.86138553
C       51.19464716      51.40596824      49.97659786
C       52.47317318      50.76379426      50.11493556
C       52.52070602      49.31490645      50.00397710
C       51.34600958      48.63126920      50.21534983
C       50.07777588      49.25735823      50.09356847
H       49.13521921      47.49229962      50.52563501
H       46.74518670      48.52195805      49.96342140
H       46.54761539      50.79706420      49.47436499
H       48.77037679      52.31493615      49.78594825
H       50.98476894      52.50770038      49.99984421
H       53.39282170      51.36846694      50.05705324
H       53.45238461      48.73064627      49.92118423
H       51.22868363      47.50866766      50.32272688
