18
Lattice="100.0 0.0 0.0 0.0 100.0 0.0 0.0 0.0 100.0" Properties=species:S:1:pos:R:3 Energy=-241630.42086638755 pbc="F F F"
C       48.84769285      48.52535271      50.16984578
C       47.61528336      49.06046533      49.83129703
C       47.57779438      50.42411310      49.80706299
C       48.64939574      51.22263833      49.78644778
C       49.87480275      50.66560836      49.93700205
C       51.09885632      51.45769640      49.81583190
C       52.30273349      50.75070220      49.82382120
C       52.36536272      49.28344904      50.10490073
C       51.19159553      48.60372317      50.32015984
C       50.00646767      49.29686304      50.08173105
H       48.97521548      47.51007418      50.57608127
H       46.71850147      48.44277134      49.92929819
H       46.62419157      50.93427830      49.42391873
H       48.41380834      52.33065121      49.75419873
H       51.06393482      52.48992582      50.12085473
H       53.28641436      51.32556176      49.69670619
H       53.37580843      48.78612628      50.30561749
H       51.19484290      47.52136211      50.46324491
