18
Lattice="100.0 0.0 0.0 0.0 100.0 0.0 0.0 0.0 100.0" Properties=species:S:1:pos:R:3 Energy=-241644.25457103245 pbc="F F F"
C       48.64906423      48.54518826      50.25067501
C       47.49653872      49.29210876      50.20786992
C       47.46923542      50.70124728      49.86023202
C       48.67947355      51.36437560      49.87433798
C       49.91744087      50.68867241      50.04174935
C       51.05084410      51.47296767      49.99346023
C       52.30867879      50.99964853      50.10656285
C       52.48942231      49.61248732      50.25968901
C       51.32015517      48.71496148      50.35748404
C       49.94856233      49.24310511      50.16570267
H       48.64201667      47.46918523      50.35722370
H       46.53132545      48.69153376      50.15539194
H       46.51638913      51.19944389      49.80059451
H       48.86953574      52.40603431      49.58781119
H       50.85135057      52.53081477      49.87144413
H       53.15899331      51.64282624      50.15776412
H       53.48361087      49.23894688      50.41218881
H       51.45398997      47.66974981      50.39450811
