18
Lattice="100.0 0.0 0.0 0.0 100.0 0.0 0.0 0.0 100.0" Properties=species:S:1:pos:R:3 Energy=-241629.34935792835 pbc="F F F"
C       48.75534618      48.52399167      50.27042205
C       47.56158346      49.10484180      50.36072661
C       47.50613098      50.59304950      50.09798479
C       48.60789780      51.35303958      49.75214964
C       49.98005672      50.78790155      49.97264150
C       51.20436869      51.50808666      49.97994373
C       52.40047339      50.82835582      50.31716267
C       52.47523788      49.43670219      50.42101871
C       51.39175976      48.69564492      50.26132665
C       50.03655350      49.31185402      50.23684598
H       48.93333128      47.40394191      50.59308061
H       46.70924657      48.53236208      50.59290837
H       46.51923337      51.13103521      50.27146155
H       48.48733657      52.47079527      49.40691939
H       51.36378888      52.59605809      49.67844952
H       53.31112223      51.37581086      50.56278395
H       53.48076663      49.09507180      50.58965780
H       51.35615248      47.51664772      50.33037837
