18
Lattice="100.0 0.0 0.0 0.0 100.0 0.0 0.0 0.0 100.0" Properties=species:S:1:pos:R:3 Energy=-241628.8290304792 pbc="F F F"
C       48.84274401      48.58377595      50.01328255
C       47.58694849      49.30237546      49.96977290
C       47.58610813      50.70231608      49.69403484
C       48.73454638      51.38294737      49.56805380
C       49.91820548      50.79210102      49.69833076
C       51.11713152      51.46312429      49.72381922
C       52.33801359      50.98963447      49.91089401
C       52.55852449      49.50915798      50.06435267
C       51.39132133      48.78679149      50.06628334
C       50.05199182      49.34806494      49.86080938
H       48.91792997      47.52300106      50.29458720
H       46.69644125      48.65594655      50.04679992
H       46.57402378      51.29408890      49.76760194
H       48.71573611      52.43690399      49.64892657
H       50.93005115      52.47699894      49.47422594
H       53.21655832      51.65237866      49.88636009
H       53.42597622      49.16292438      50.49588486
H       51.49899384      47.70346217      50.52577406
