18
Lattice="100.0 0.0 0.0 0.0 100.0 0.0 0.0 0.0 100.0" Properties=species:S:1:pos:R:3 Energy=-241632.88470110446 pbc="F F F"
C       48.72256611      48.47440812      50.24430315
C       47.59557904      49.20345098      50.13006869
C       47.56766070      50.58839714      49.96901735
C       48.70455630      51.30768546      49.97476846
C       49.89012196      50.65577119      50.02557943
C       51.08906599      51.39543108      49.77731820
C       52.36212507      50.87253346      50.15922572
C       52.42826626      49.51989897      50.42394857
C       51.33337670      48.66446713      50.27909881
C       50.00402222      49.17793105      50.16781549
H       48.64061775      47.42877626      50.28242098
H       46.71331039      48.68809187      50.02697803
H       46.58886300      51.11507669      50.09804824
H       48.76531576      52.34215708      49.90249493
H       50.86656484      52.57122374      49.57605143
H       53.22012359      51.53345765      50.03261411
H       53.41113700      48.97117197      50.38082599
H       51.57334743      47.58373336      50.34348847
