18
Lattice="100.0 0.0 0.0 0.0 100.0 0.0 0.0 0.0 100.0" Properties=species:S:1:pos:R:3 Energy=-241636.68825783944 pbc="F F F"
C       48.86302269      48.55891611      50.02563499
C       47.68777330      49.18126954      50.08728658
C       47.54085620      50.60455257      49.87821366
C       48.69765821      51.37773799      49.73701076
C       49.94296630      50.70505497      49.74334172
C       51.16745722      51.46086823      49.67134720
C       52.48372054      50.90095720      50.07671685
C       52.53219088      49.48175848      50.23591863
C       51.27178745      48.73597411      50.17392210
C       50.02569080      49.29400485      49.95360419
H       48.90439012      47.53411244      50.42350117
H       46.73092930      48.68106103      50.36872284
H       46.50952836      50.91724614      49.98691609
H       48.51165939      52.46132555      49.86726052
H       50.95570967      52.46588756      49.38202535
H       53.45338488      51.43319456      50.09162345
H       53.49047164      48.99664501      50.61797465
H       51.30764728      47.68573652      50.37440719
