18
Lattice="100.0 0.0 0.0 0.0 100.0 0.0 0.0 0.0 100.0" Properties=species:S:1:pos:R:3 Energy=-241633.25055691396 pbc="F F F"
C       48.89895196      48.53504096      50.14505211
C       47.69035264      49.12567656      49.80829548
C       47.50682025      50.44320449      49.76867998
C       48.62357251      51.31065817      49.75275717
C       49.98246470      50.72976773      49.78362221
C       51.25642261      51.40996599      49.71055897
C       52.49529454      50.72358971      49.86422643
C       52.58998244      49.34849166      50.14163559
C       51.40544256      48.66482447      50.15578536
C       50.09801093      49.31409891      49.98458534
H       48.75799238      47.48556179      50.42640402
H       46.82951631      48.52620922      50.02481285
H       46.51939881      50.78962274      49.74383666
H       48.41241607      52.38369178      49.96068404
H       51.46715790      52.51443821      49.57359598
H       53.35716899      51.35231164      49.57512648
H       53.48060119      48.67663705      50.18239997
H       51.44402627      47.61241510      50.07251330
