18
Lattice="100.0 0.0 0.0 0.0 100.0 0.0 0.0 0.0 100.0" Properties=species:S:1:pos:R:3 Energy=-241619.50788907887 pbc="F F F"
C       48.78326975      48.55643157      50.12605590
C       47.61909440      49.23631328      49.87969993
C       47.50372430      50.76855143      49.85978327
C       48.67068011      51.43277243      49.80038795
C       49.84755326      50.77447671      49.86927526
C       50.97200603      51.51762009      49.82689046
C       52.24907082      50.94748148      49.92575183
C       52.38965654      49.52636809      50.10052297
C       51.23933449      48.79934211      50.33742966
C       49.92100752      49.41012840      50.14115556
H       49.00600398      47.44421948      50.16981365
H       46.57606134      48.68582715      50.13510702
H       46.58751077      51.49401171      49.72995669
H       48.48357383      52.55578052      49.57332555
H       50.85647094      52.52855513      49.81028574
H       53.16723269      51.52703646      49.86672691
H       53.42393866      49.17345731      50.27677264
H       51.36360238      47.68718837      50.42667445
