18
Lattice="100.0 0.0 0.0 0.0 100.0 0.0 0.0 0.0 100.0" Properties=species:S:1:pos:R:3 Energy=-241630.32709742026 pbc="F F F"
C       48.85280377      48.55131544      50.22204356
C       47.59735006      49.11649875      50.25535817
C       47.47953793      50.53209139      50.03786850
C       48.53606802      51.40569299      49.86515220
C       49.92076510      50.80741231      50.00669472
C       51.23155570      51.41380670      49.82424446
C       52.41746455      50.76323405      50.13390736
C       52.48440102      49.42522593      50.55586188
C       51.34047960      48.74856046      50.26127301
C       50.03805362      49.37916256      49.99675134
H       48.86500747      47.45893589      50.31228700
H       46.63586925      48.55724688      50.36511071
H       46.48529416      51.01232788      50.12024684
H       48.38928010      52.54106411      49.68565553
H       51.39381122      52.29557721      49.23946054
H       53.33767486      51.26425165      50.09321099
H       53.51470584      48.98498302      50.76053946
H       51.40485572      47.69188068      50.61449300
