18
Lattice="100.0 0.0 0.0 0.0 100.0 0.0 0.0 0.0 100.0" Properties=species:S:1:pos:R:3 Energy=-241627.5658432754 pbc="F F F"
C       48.66487198      48.60635539      50.11340135
C       47.44031149      49.30571829      49.89279650
C       47.42909507      50.69348975      49.78001103
C       48.60939568      51.35577229      49.83770326
C       49.93472898      50.75373725      49.79164563
C       51.13507365      51.50129831      49.81791661
C       52.39614678      50.98522754      49.95425709
C       52.52555341      49.58704786      50.05476016
C       51.41123923      48.77420529      50.30260753
C       49.99292249      49.36633002      50.14052375
H       48.55841129      47.46053955      50.13283365
H       46.53933891      48.78159241      49.65234791
H       46.56371210      51.28839320      49.77127726
H       48.72642019      52.36892709      49.57919297
H       51.15077238      52.53946045      49.66161443
H       53.11787466      51.79159806      49.92952256
H       53.46066109      49.03477390      50.17519209
H       51.56196691      47.75359944      50.42080703
