18
Lattice="100.0 0.0 0.0 0.0 100.0 0.0 0.0 0.0 100.0" Properties=species:S:1:pos:R:3 Energy=-241629.3426999537 pbc="F F F"
C       48.89389238      48.56551327      50.33919781
C       47.64516767      49.14211911      50.26052860
C       47.50492857      50.54857418      49.93159783
C       48.66723820      51.42142337      49.85355990
C       50.04481830      50.83358564      50.11978007
C       51.37179964      51.50227580      49.97486766
C       52.58585872      50.87686528      50.18023430
C       52.50776258      49.48487602      50.32342446
C       51.35330548      48.82460232      50.33279347
C       50.04378983      49.35556018      50.13077565
H       48.88467178      47.48126135      50.48697479
H       46.78421473      48.62524333      50.54622083
H       46.46608344      50.98278432      49.56552792
H       48.43731908      52.44342152      49.45377917
H       51.24708752      52.51873865      49.89466394
H       53.53391656      51.34025479      50.17449723
H       53.46010686      48.89623567      50.28617754
H       51.45359683      47.69796482      50.46281008
