18
Lattice="100.0 0.0 0.0 0.0 100.0 0.0 0.0 0.0 100.0" Properties=species:S:1:pos:R:3 Energy=-241629.58554845574 pbc="F F F"
C       48.85983363      48.56386651      49.94855545
C       47.69903069      49.14267592      50.10453066
C       47.64473980      50.58951782      49.92180839
C       48.67726346      51.35230048      49.67272134
C       49.97934333      50.73290580      49.61843498
C       51.29296814      51.50623254      49.65931189
C       52.46159009      50.90561891      49.99228398
C       52.46810781      49.51113918      50.30033844
C       51.30680427      48.69415307      50.14654270
C       49.98391522      49.32271179      49.80801366
H       48.83402107      47.43414981      49.87030335
H       46.82268813      48.65148901      50.34254233
H       46.59669954      51.00331580      50.02303873
H       48.49667401      52.41644085      49.39063498
H       51.23891988      52.56585019      49.69711948
H       53.40330046      51.54116996      50.20784520
H       53.38468759      48.99667701      50.60936502
H       51.19106558      47.57097531      50.40994329
