18
Lattice="100.0 0.0 0.0 0.0 100.0 0.0 0.0 0.0 100.0" Properties=species:S:1:pos:R:3 Energy=-241630.95402494833 pbc="F F F"
C       48.88768487      48.54818886      50.19441322
C       47.61622766      49.12548835      49.96373364
C       47.49901225      50.50428976      49.85163638
C       48.56263808      51.40857378      49.83452815
C       49.95350867      50.75655092      50.06937640
C       51.24056620      51.45184951      49.84586650
C       52.52760209      50.80876775      49.98133577
C       52.60228903      49.39518055      50.16561989
C       51.37481061      48.62571642      50.35369910
C       50.08386107      49.34684012      50.25104372
H       48.93793848      47.47798875      49.99130518
H       46.68336013      48.54723378      50.00950799
H       46.48653256      50.84388578      49.68290870
H       48.36237633      52.52201125      49.72310081
H       51.03229319      52.50299972      49.63143501
H       53.39061709      51.43293524      49.93314232
H       53.51346744      48.73495576      50.26134051
H       51.09515683      47.57365491      50.36856499
