18
Lattice="100.0 0.0 0.0 0.0 100.0 0.0 0.0 0.0 100.0" Properties=species:S:1:pos:R:3 Energy=-241622.02851350236 pbc="F F F"
C       48.84249566      48.55250712      49.95270821
C       47.62911145      49.16369526      49.90121311
C       47.57867586      50.59942992      49.57664598
C       48.79183293      51.26930936      49.52749013
C       49.99298373      50.59985194      49.59363241
C       51.10992604      51.47039393      49.65184136
C       52.24566315      50.88386915      49.83232659
C       52.37771538      49.48214090      49.92558720
C       51.28491338      48.62611665      50.01149582
C       50.02800604      49.17788240      49.76273937
H       48.98608857      47.48218707      50.24163929
H       46.73751155      48.66698326      50.14290642
H       46.61775457      51.20446924      49.54153852
H       48.82674960      52.40620504      49.64789896
H       50.84021687      52.51781293      49.64446104
H       53.10497800      51.50200271      49.65756189
H       53.38224543      49.06712363      50.47250987
H       51.16095748      47.50555398      50.25159302
