18
Lattice="100.0 0.0 0.0 0.0 100.0 0.0 0.0 0.0 100.0" Properties=species:S:1:pos:R:3 Energy=-241635.21244958058 pbc="F F F"
C       48.71054425      48.62802586      50.08139010
C       47.44851926      49.24645814      49.92237098
C       47.45516955      50.59076091      49.72193416
C       48.66148132      51.30653124      49.73865430
C       49.82832684      50.66337494      49.91637480
C       51.01772753      51.41401623      49.86199624
C       52.26767058      50.86602512      49.81533468
C       52.39984849      49.52932820      50.11178674
C       51.33790698      48.69725785      50.22175369
C       50.01254792      49.30562165      50.09166238
H       48.62848410      47.53208757      50.24223833
H       46.58582301      48.58046241      49.91420536
H       46.59980670      51.11167622      49.37160760
H       48.67969375      52.30287321      49.37565073
H       50.88366152      52.46791243      49.61720995
H       53.21292599      51.30205596      49.68821027
H       53.41417699      49.06236775      50.25636757
H       51.43909524      47.65499289      50.62839240
