18
Lattice="100.0 0.0 0.0 0.0 100.0 0.0 0.0 0.0 100.0" Properties=species:S:1:pos:R:3 Energy=-241629.11151492377 pbc="F F F"
C       48.85015249      48.56909797      50.23696827
C       47.66788034      49.13246419      49.83682695
C       47.59507585      50.46655832      49.73134682
C       48.68917076      51.27591543      49.88488160
C       49.95771430      50.70024926      49.92820596
C       51.12225483      51.48484071      49.78697620
C       52.40893421      50.79071112      49.95013716
C       52.45118084      49.36796305      50.04768518
C       51.27637780      48.66643570      50.26647792
C       50.02678919      49.33998986      50.22283554
H       48.80784830      47.44045216      50.47219680
H       46.91309085      48.42086768      49.68551841
H       46.52763997      50.90896319      49.41645059
H       48.58612344      52.23457455      49.53915528
H       51.00264979      52.55954784      49.80360152
H       53.42820804      51.32029732      50.07119161
H       53.47236003      48.84167248      49.85212141
H       51.28238967      47.56507690      50.58354941
