18
Lattice="100.0 0.0 0.0 0.0 100.0 0.0 0.0 0.0 100.0" Properties=species:S:1:pos:R:3 Energy=-241629.94475095108 pbc="F F F"
C       48.59220209      48.57945726      50.19651527
C       47.52756206      49.29048286      50.01918864
C       47.45522646      50.69012033      49.80865164
C       48.62139497      51.38657228      49.78987167
C       49.83801440      50.70942060      49.89230227
C       51.04593281      51.47949732      49.81521844
C       52.21334229      50.99491469      50.05108938
C       52.38918369      49.61691386      50.16391617
C       51.25892608      48.72287212      50.20477943
C       49.93014005      49.29129877      50.07643359
H       48.65112232      47.50426884      50.45914741
H       46.62163646      48.79626465      50.09956173
H       46.56314513      51.22691591      49.54085259
H       48.57970045      52.41788375      49.56521881
H       50.84008279      52.49573116      49.86972392
H       53.10713956      51.62341206      50.21407221
H       53.43685487      49.31496222      50.23065443
H       51.19210032      47.64019187      50.25416306
