18
Lattice="100.0 0.0 0.0 0.0 100.0 0.0 0.0 0.0 100.0" Properties=species:S:1:pos:R:3 Energy=-241627.11269524103 pbc="F F F"
C       48.78516463      48.50864019      49.95958560
C       47.65618661      49.30903672      50.13887239
C       47.55689159      50.58979159      49.97237130
C       48.69051286      51.37190831      49.78786849
C       49.91159269      50.70604200      49.74270081
C       51.04924403      51.52009569      49.69251582
C       52.28918490      50.89878359      50.04370625
C       52.35711444      49.51401945      50.34738531
C       51.30179086      48.68748524      50.25637115
C       49.96744217      49.18205632      49.99224776
H       48.61558776      47.41627599      50.03033559
H       46.79374361      48.69436221      50.34500953
H       46.59732089      51.05793660      50.21652565
H       48.69648874      52.35511571      49.41981820
H       50.86661704      52.58372401      49.40985098
H       53.32031579      51.40275200      50.04178487
H       53.40267911      49.11870953      50.59014902
H       51.57575155      47.63913012      50.32325878
