18
Lattice="100.0 0.0 0.0 0.0 100.0 0.0 0.0 0.0 100.0" Properties=species:S:1:pos:R:3 Energy=-241637.54017459095 pbc="F F F"
C       48.67048754      48.52121497      50.15596851
C       47.41801868      49.16191618      49.97182093
C       47.38468580      50.57023814      49.82792913
C       48.58989121      51.22370399      49.78526291
C       49.94993902      50.71725882      50.02085799
C       51.19573792      51.46375451      49.90651867
C       52.43171630      50.87248721      49.89430897
C       52.57238879      49.42746430      50.19194431
C       51.40839268      48.66076963      50.30006108
C       50.01004268      49.23433317      50.21565002
H       48.66062155      47.44973908      50.42464291
H       46.51852097      48.51485877      49.81893307
H       46.47635486      51.16643732      49.57892507
H       48.39567723      52.26156050      49.51197545
H       51.19377886      52.55026092      49.88404290
H       53.33100308      51.39454318      49.64773152
H       53.52364514      49.02722719      50.47231836
H       51.48709827      47.55626699      50.48802455
