18
Lattice="100.0 0.0 0.0 0.0 100.0 0.0 0.0 0.0 100.0" Properties=species:S:1:pos:R:3 Energy=-241633.8903221758 pbc="F F F"
C       48.84269973      48.48312020      50.16170278
C       47.63049893      49.22315629      50.14312022
C       47.64261997      50.62291467      49.80175233
C       48.76067212      51.38098207      49.75240093
C       50.06182449      50.71220024      49.83230547
C       51.26768114      51.50915480      49.78580002
C       52.42318679      50.91141462      50.07544795
C       52.42110537      49.58724008      50.22155554
C       51.42686555      48.67493572      50.16203398
C       50.08105572      49.20191952      49.93717701
H       48.82232549      47.38194458      50.26328383
H       46.66146585      48.76917166      50.46158894
H       46.60133712      51.05682451      49.72245615
H       48.79797193      52.43899827      49.53841106
H       51.19147211      52.61805542      49.81102356
H       53.39866288      51.44108110      50.29219537
H       53.36366329      49.14156408      50.40321144
H       51.84957107      47.59992072      50.24898001
