18
Lattice="100.0 0.0 0.0 0.0 100.0 0.0 0.0 0.0 100.0" Properties=species:S:1:pos:R:3 Energy=-241633.25775027595 pbc="F F F"
C       48.72006696      48.53338157      49.86349152
C       47.51638490      49.21163526      49.69724562
C       47.54650314      50.55055811      49.51130592
C       48.67748798      51.33483672      49.55291500
C       49.90664305      50.69197944      49.82531217
C       51.07814457      51.48515104      49.80793316
C       52.29661351      50.85872394      49.52881038
C       52.42319944      49.46746902      49.78095556
C       51.33699710      48.71207820      50.20535535
C       49.98644747      49.25219590      50.07915676
H       48.70447999      47.41633265      49.80878364
H       46.64837717      48.60559490      49.50340045
H       46.58644667      51.12837976      49.31463917
H       48.65329775      52.38480788      49.54874007
H       50.88094220      52.58366735      49.56663375
H       53.22404153      51.18570213      49.22714235
H       53.41355333      48.99332698      49.85119236
H       51.53739352      47.74321011      50.77285765
