18
Lattice="100.0 0.0 0.0 0.0 100.0 0.0 0.0 0.0 100.0" Properties=species:S:1:pos:R:3 Energy=-241627.0813606709 pbc="F F F"
C       48.82665656      48.60737716      49.99130648
C       47.61758192      49.33036108      50.09694287
C       47.65223358      50.70501461      49.95380988
C       48.74508449      51.41323306      49.60413933
C       50.02342311      50.76522576      49.65699345
C       51.18039058      51.51265223      49.77794540
C       52.39214088      51.00718717      50.04072421
C       52.49306040      49.62934147      50.21238958
C       51.38552021      48.79652900      50.17254927
C       50.08696168      49.28334201      49.90015712
H       48.79517168      47.45808583      50.10205339
H       46.60461229      49.01466389      50.31379011
H       46.78284729      51.31466698      49.77138888
H       48.83148812      52.41235187      49.41484770
H       51.01562844      52.54191417      49.46083883
H       53.09231868      51.92284836      49.97465296
H       53.39538771      49.19953366      50.52413239
H       51.39655600      47.74059360      50.58515230
