18
Lattice="100.0 0.0 0.0 0.0 100.0 0.0 0.0 0.0 100.0" Properties=species:S:1:pos:R:3 Energy=-241625.83101092227 pbc="F F F"
C       48.83167032      48.54992735      50.22550469
C       47.68336737      49.29435781      50.02080239
C       47.61299223      50.61113943      49.72009401
C       48.75964305      51.37664839      49.78261189
C       49.98507399      50.70996449      50.15504479
C       51.10349399      51.49658938      49.99212428
C       52.30973753      50.89508088      49.93818295
C       52.51291698      49.49621296      50.09394505
C       51.47034380      48.66308825      50.27843504
C       50.04675022      49.28495783      50.38243858
H       48.83686378      47.42112044      50.28637831
H       46.59495756      48.96335883      49.80181541
H       46.61842303      51.08240231      49.61756142
H       48.60140010      52.45166049      49.75812654
H       51.05378301      52.57887956      50.01789878
H       53.17705049      51.59228471      49.78813549
H       53.40504244      48.94363996      49.95928486
H       51.46943172      47.50112413      50.23084406
