18
Lattice="100.0 0.0 0.0 0.0 100.0 0.0 0.0 0.0 100.0" Properties=species:S:1:pos:R:3 Energy=-241626.16889493595 pbc="F F F"
C       48.99149535      48.53631180      50.05650058
C       47.75894604      49.17695583      50.02279761
C       47.54483575      50.57071492      49.83372753
C       48.74003930      51.33997079      49.86067597
C       50.01292591      50.69528745      49.66802970
C       51.29099939      51.38504395      49.69787862
C       52.52109780      50.84347989      50.05595540
C       52.57423772      49.45761076      50.18628232
C       51.39372204      48.68071096      50.22891428
C       50.13321259      49.25369800      50.02507079
H       49.16768052      47.47639345      50.19729042
H       47.14722162      48.31691750      50.41500892
H       46.52497585      50.93081667      49.94486411
H       48.65280475      52.43265150      49.97146092
H       51.26368495      52.52360655      49.58499108
H       53.35746600      51.50461195      50.20813529
H       53.47502415      48.79122719      50.21469471
H       51.32274306      47.57324318      50.29696151
