18
Lattice="100.0 0.0 0.0 0.0 100.0 0.0 0.0 0.0 100.0" Properties=species:S:1:pos:R:3 Energy=-241636.30243093663 pbc="F F F"
C       48.84741161      48.50897499      50.30960244
C       47.60354795      49.11810881      49.94024264
C       47.60389543      50.53846942      49.73308427
C       48.70669142      51.28763598      49.81956745
C       50.00552123      50.67963821      50.09106907
C       51.22895141      51.48118189      49.95181086
C       52.45192711      50.80510311      49.92149412
C       52.45534396      49.44397346      50.11993886
C       51.37656990      48.67051244      50.21955228
C       50.07441005      49.24194716      50.29974508
H       48.83971461      47.38331210      50.35332137
H       46.72331689      48.42218130      49.82383636
H       46.61813308      50.97658912      49.76558892
H       48.53120458      52.49330828      49.67200322
H       51.22245049      52.61668790      49.72936691
H       53.38186692      51.21567665      49.63095719
H       53.37855942      48.86971400      49.90308011
H       51.64307038      47.60199964      50.36904281
