18
Lattice="100.0 0.0 0.0 0.0 100.0 0.0 0.0 0.0 100.0" Properties=species:S:1:pos:R:3 Energy=-241633.8908407534 pbc="F F F"
C       48.81062357      48.48047992      50.01746749
C       47.54976862      49.12618665      50.00019797
C       47.55443254      50.59542611      49.81974294
C       48.69503669      51.30020420      49.67081208
C       49.94778860      50.76326431      49.76928997
C       51.13812926      51.46841666      49.75684548
C       52.33907551      50.88754526      49.88759930
C       52.45215609      49.40278908      50.17167041
C       51.21581748      48.78762288      50.20115413
C       49.96286913      49.35754755      49.91091048
H       49.05675950      47.41973636      50.40508955
H       46.72506827      48.52283409      50.30382537
H       46.52791698      51.09151527      49.68185425
H       48.79591707      52.36518327      49.56030106
H       50.96301359      52.58026364      49.67202365
H       53.20993067      51.56179327      49.85493050
H       53.47208302      48.89143768      50.27847944
H       51.11927280      47.74730112      50.43969894
