18
Lattice="100.0 0.0 0.0 0.0 100.0 0.0 0.0 0.0 100.0" Properties=species:S:1:pos:R:3 Energy=-241636.84273390676 pbc="F F F"
C       48.77131548      48.51576114      50.15745502
C       47.56935720      49.09269681      50.05345289
C       47.52165743      50.44668767      49.79945741
C       48.59530314      51.26230544      49.68769039
C       49.90410716      50.72305397      49.98381733
C       51.12754230      51.43059413      49.96607211
C       52.36124155      50.72387841      49.93520712
C       52.47470892      49.38208575      50.10195001
C       51.24473727      48.67939632      50.29710276
C       49.95220533      49.26902174      50.12176848
H       48.76793073      47.50866727      50.41120069
H       46.62410193      48.52558145      50.02287036
H       46.60891668      50.86748037      49.69030709
H       48.23495945      52.24577245      49.47971662
H       51.15897585      52.49133273      49.74093139
H       53.34020337      51.17414815      49.62642173
H       53.39108332      48.84881219      50.14518468
H       51.31181071      47.64018243      50.52028338
