18
Lattice="100.0 0.0 0.0 0.0 100.0 0.0 0.0 0.0 100.0" Properties=species:S:1:pos:R:3 Energy=-241633.17849907797 pbc="F F F"
C       48.87734234      48.50647644      50.20167753
C       47.59950720      49.00860209      49.92638321
C       47.56235581      50.40131991      49.73170912
C       48.68287287      51.07560383      49.73890898
C       50.02257224      50.62897487      49.82221045
C       51.28163616      51.40997768      49.71768235
C       52.50631701      50.70505599      49.97677616
C       52.50442934      49.30250748      50.12060814
C       51.28504024      48.61162165      50.09687844
C       50.07803288      49.21296293      49.96872360
H       48.97862898      47.41872679      50.40187632
H       46.71388857      48.34357737      49.82449516
H       46.57456047      50.90631612      49.66502676
H       48.50634008      52.16230099      49.68340148
H       51.33555612      52.58127321      49.59812368
H       53.42543953      51.37095734      50.23357091
H       53.40948556      48.74634435      50.32935698
H       51.21643378      47.61575204      50.26231359
