18
Lattice="100.0 0.0 0.0 0.0 100.0 0.0 0.0 0.0 100.0" Properties=species:S:1:pos:R:3 Energy=-241634.14322218296 pbc="F F F"
C       48.77211280      48.52900023      50.21389241
C       47.49932854      49.05925447      49.98771356
C       47.48476692      50.44899149      49.80867501
C       48.57609196      51.30329868      49.84962012
C       49.81915027      50.72938957      50.02255194
C       51.02966646      51.50234691      49.88083726
C       52.31010480      50.72947484      49.96949354
C       52.37225167      49.34589388      50.17903949
C       51.16746249      48.63246504      50.26668840
C       49.91173481      49.33311724      50.34031649
H       48.88017878      47.49520446      50.45622991
H       46.75618480      48.34145823      49.64663609
H       46.58739992      50.98302452      49.55932781
H       48.44366607      52.38440621      49.67526618
H       50.79015466      52.50479554      49.54377009
H       53.26073901      51.34741526      49.58459650
H       53.41260008      48.86792360      50.12364227
H       51.12552796      47.55565460      50.29079947
