18
Lattice="100.0 0.0 0.0 0.0 100.0 0.0 0.0 0.0 100.0" Properties=species:S:1:pos:R:3 Energy=-241625.16492194487 pbc="F F F"
C       48.95222236      48.48236058      50.13195063
C       47.66285234      49.11430659      50.17170056
C       47.59380717      50.47666424      49.92205656
C       48.80269221      51.26224085      49.71373297
C       50.00994494      50.62809873      49.71166927
C       51.17190556      51.40290920      49.81579556
C       52.38356357      50.81422928      50.10010739
C       52.47559735      49.35047456      50.29692182
C       51.34358233      48.59372030      50.17582663
C       50.06765297      49.24021460      49.93717794
H       49.06182006      47.48055011      50.21433841
H       46.79133978      48.63453182      50.29472121
H       46.63871409      50.95279831      50.06384058
H       48.55499493      52.27110264      49.50728954
H       51.07447710      52.51944989      49.64995682
H       53.02586892      51.54991426      50.44882257
H       53.36128591      48.73576332      50.49271046
H       51.11012612      47.51846934      50.43714362
