18
Lattice="100.0 0.0 0.0 0.0 100.0 0.0 0.0 0.0 100.0" Properties=species:S:1:pos:R:3 Energy=-241634.06904098295 pbc="F F F"
C       48.78694377      48.48124466      50.12957520
C       47.63755368      49.21172032      49.88582301
C       47.59106462      50.71212223      49.74407121
C       48.77752150      51.38810222      49.73034252
C       50.02510368      50.74873765      49.93372929
C       51.24084309      51.50866770      49.85890346
C       52.50180917      50.92169764      49.88705341
C       52.59365172      49.54967536      50.01883424
C       51.41697361      48.87763563      50.25438146
C       50.07389918      49.26269196      50.13743499
H       48.84815526      47.39710784      50.23807279
H       46.76410457      48.48218207      49.79328934
H       46.51835843      51.18298293      49.67401307
H       48.73486116      52.43312346      49.71383673
H       51.09983368      52.60289216      49.84678627
H       53.36075416      51.54355772      49.88493470
H       53.48164157      49.03846684      49.87782019
H       51.67246227      47.82631317      50.32598693
