18
Lattice="100.0 0.0 0.0 0.0 100.0 0.0 0.0 0.0 100.0" Properties=species:S:1:pos:R:3 Energy=-241634.3722068722 pbc="F F F"
C       48.90193868      48.59791224      50.21170084
C       47.64412680      49.14540622      50.14322865
C       47.58115198      50.52433403      49.79690247
C       48.74759694      51.32331016      49.76308519
C       49.99806822      50.68919810      50.00888339
C       51.15733056      51.45094009      49.81641887
C       52.41991385      50.84735267      50.06739590
C       52.55372167      49.42168548      50.29017675
C       51.33866324      48.63932022      50.12684939
C       50.08453514      49.30854911      50.11978474
H       49.10000065      47.48694439      50.47356650
H       46.83392913      48.48698718      50.31068634
H       46.48105578      50.91412770      49.52643350
H       48.69228458      52.33018934      49.60486912
H       51.10239482      52.51305561      49.56806512
H       53.35029681      51.46704241      50.12690187
H       53.51894422      48.77177877      50.07582647
H       51.42831654      47.51672746      50.17698317
