18
Lattice="100.0 0.0 0.0 0.0 100.0 0.0 0.0 0.0 100.0" Properties=species:S:1:pos:R:3 Energy=-241638.89810119037 pbc="F F F"
C       48.81612133      48.60149710      50.19941310
C       47.66632660      49.33558757      49.89457953
C       47.59498954      50.69071845      49.78842795
C       48.78376797      51.36202569      49.91740570
C       49.96016272      50.71487046      50.10748781
C       51.16405122      51.47880708      49.90784938
C       52.45535961      51.00095569      49.88537532
C       52.49366281      49.61295684      50.11643224
C       51.37616736      48.80771792      50.37629650
C       50.04530772      49.28949124      50.29216001
H       48.74860121      47.42387486      50.15027208
H       46.79376295      48.72158959      49.71628326
H       46.65285482      51.29301638      49.53884540
H       48.90071877      52.40470225      49.83666798
H       50.94993219      52.57612514      49.70366512
H       53.26869342      51.64447619      49.54931312
H       53.34714518      49.06353978      49.77544661
H       51.49315531      47.68901573      50.46115460
