18
Lattice="100.0 0.0 0.0 0.0 100.0 0.0 0.0 0.0 100.0" Properties=species:S:1:pos:R:3 Energy=-241634.95422925815 pbc="F F F"
C       48.80582435      48.53408788      49.87159487
C       47.64813571      49.18259073      49.84384953
C       47.52474170      50.53213837      49.78386779
C       48.65831009      51.27201768      49.71323921
C       49.90074976      50.66829564      49.65903290
C       51.17843510      51.42972071      49.55320557
C       52.38337209      50.77901486      49.76796142
C       52.50586798      49.46812412      50.20628122
C       51.33142684      48.65171188      50.13598371
C       50.05362812      49.17653943      49.82981009
H       48.77701791      47.51100939      50.10601599
H       46.75205298      48.59318976      49.88434188
H       46.53078117      51.07896533      49.97502615
H       48.53762247      52.35775710      49.52037652
H       51.26336636      52.48899060      49.28143869
H       53.35908111      51.28420466      49.87018914
H       53.46921883      49.17219787      50.71856132
H       51.39987837      47.65993888      50.71486986
