24
Lattice="100.0 0.0 0.0 0.0 100.0 0.0 0.0 0.0 100.0" Properties=species:S:1:pos:R:3 Energy=-358670.5639669952 Energy_pyscf=-358668.00184503966 Energy_pyscf_og=-358670.1386001801 pbc="F F F"
N       50.40786114      49.32417410      49.29018725
N       49.72705701      50.07491654      50.09494381
C       48.39141261      50.00278515      49.90549832
C       47.67307087      50.85072048      50.82381496
C       46.32360096      50.77927621      51.04091241
C       45.53919269      49.86089098      50.35586527
C       46.24886707      48.96939466      49.42854670
C       47.67206879      49.03441836      49.21850281
C       51.74550633      49.40387328      49.68644277
C       52.65813935      48.77484179      48.81829338
C       53.99153846      48.76933448      49.11429889
C       54.46370492      49.33647564      50.35746128
C       53.67669124      50.15847916      51.20036194
C       52.27532502      50.07899659      50.91049695
H       48.26417660      51.62995186      51.36862479
H       45.86893759      51.54298826      51.63557851
H       44.46476531      49.93016290      50.29016532
H       45.66727549      48.37963339      48.80832714
H       48.12785861      48.32150432      48.50743765
H       52.07094310      48.54043926      47.96478858
H       54.66575158      48.30688082      48.40837731
H       55.50192797      49.01322175      50.45051479
H       53.95239367      50.79870840      52.12080521
H       51.52705562      50.72278117      51.38878671
