24
Lattice="100.0 0.0 0.0 0.0 100.0 0.0 0.0 0.0 100.0" Properties=species:S:1:pos:R:3 Energy=-358669.6806958116 Energy_pyscf=-358667.7536932753 Energy_pyscf_og=-358669.25096107007 pbc="F F F"
N       50.37277074      50.45288112      50.15591451
N       49.66170736      50.06754084      49.21654961
C       48.26606259      50.28919966      49.56296747
C       47.89368584      50.82216460      50.77258227
C       46.52893459      50.75773309      51.16261474
C       45.51611792      50.38126630      50.12195913
C       45.93593199      49.83836396      48.96105581
C       47.27982749      49.81662125      48.63873734
C       51.79033096      50.16773012      50.01342729
C       52.20388961      49.15768134      49.21670110
C       53.54974016      48.90050250      49.04455294
C       54.44249930      49.71352721      49.80321841
C       53.93420682      50.85255547      50.49630313
C       52.57746133      51.11063965      50.66394207
H       48.56109662      51.00506597      51.68330238
H       46.27994767      51.17946146      52.16351018
H       44.50216494      50.33561411      50.55532761
H       45.16552577      49.20569276      48.50337045
H       47.58911027      49.30474362      47.76453359
H       51.53183489      48.46519596      48.59911421
H       53.97422727      48.17305689      48.34318393
H       55.52474495      49.64906327      49.96635079
H       54.61179997      51.46986123      51.08830071
H       52.14845237      51.95523681      51.10010249
