24
Lattice="100.0 0.0 0.0 0.0 100.0 0.0 0.0 0.0 100.0" Properties=species:S:1:pos:R:3 Energy=-358668.2323950474 Energy_pyscf=-358665.59238056926 Energy_pyscf_og=-358667.81134712667 pbc="F F F"
N       50.28282594      50.27697529      50.48093915
N       49.51925373      49.51194962      49.71414904
C       48.14851977      49.77011984      50.01196572
C       47.75553157      50.94148803      50.72288897
C       46.41192725      51.23892574      50.85762709
C       45.50101392      50.40541783      50.17780621
C       45.85518564      49.30459078      49.39550399
C       47.26047064      48.99062885      49.35824147
C       51.64092845      49.85351549      50.37641848
C       52.14552724      49.29621712      49.09304479
C       53.45118226      49.23323176      48.85126301
C       54.48259760      49.74885716      49.73533972
C       54.03412785      50.18397335      50.97304889
C       52.64647642      50.29602242      51.39755113
H       48.44373857      51.63589797      51.14764840
H       46.07215845      51.94742042      51.58045689
H       44.44022820      50.67044674      50.21940626
H       45.20258731      48.49336925      49.17647329
H       47.71963407      48.08814482      48.76432943
H       51.26110549      48.90164819      48.51778883
H       53.80924310      48.84377391      47.88075127
H       55.46482676      49.75605456      49.37085126
H       54.78478676      50.62658302      51.60407297
H       52.39969089      50.80345969      52.37563144
