24
Lattice="100.0 0.0 0.0 0.0 100.0 0.0 0.0 0.0 100.0" Properties=species:S:1:pos:R:3 Energy=-358673.02290493314 Energy_pyscf=-358670.5505194453 Energy_pyscf_og=-358672.5786787181 pbc="F F F"
N       50.41020950      50.01868695      50.62677396
N       49.58870583      49.21111880      50.11518946
C       48.17096016      49.61698984      50.05640938
C       47.71146312      50.98731761      50.43755470
C       46.28071950      51.30508514      50.49954059
C       45.41592452      50.35659595      50.01789870
C       45.82746906      49.07883838      49.60494727
C       47.19311345      48.74640137      49.55688163
C       51.89619901      49.70916707      50.25549542
C       52.24662655      49.54731793      48.94534323
C       53.61405595      49.50805942      48.69128789
C       54.54523277      49.68703391      49.69257262
C       54.19453615      49.87366554      51.00824517
C       52.79792868      49.80450971      51.31512567
H       48.52901245      51.64944483      50.56846021
H       45.97117731      52.35247144      50.68660459
H       44.33478415      50.61925530      49.99695028
H       44.98388831      48.43938463      49.43825022
H       47.58790031      47.75113636      49.17332039
H       51.42178721      49.49316415      48.28606602
H       53.89936837      49.48406606      47.57590735
H       55.59705554      49.78021387      49.30539717
H       54.86345782      49.95768252      51.81098204
H       52.44744478      50.10613436      52.33199507
