24
Lattice="100.0 0.0 0.0 0.0 100.0 0.0 0.0 0.0 100.0" Properties=species:S:1:pos:R:3 Energy=-358676.89755690895 Energy_pyscf=-358675.2416828837 Energy_pyscf_og=-358676.46457031916 pbc="F F F"
N       50.39678794      50.04551521      50.45012901
N       49.52439525      49.87902499      49.55842675
C       48.18103186      50.12206712      49.74462833
C       47.66646875      50.95654411      50.78472060
C       46.34643366      51.12399507      50.81674721
C       45.45185241      50.54705772      49.87491701
C       45.99949754      49.66393381      48.94827707
C       47.38454896      49.41711812      48.88871777
C       51.77285745      49.96835671      50.01102173
C       52.23829900      49.23132617      48.92191674
C       53.65779262      49.05225277      48.86389001
C       54.56432757      49.79262593      49.64243908
C       54.08609337      50.67968526      50.58857313
C       52.67529074      50.77303298      50.83283182
H       48.32808767      51.51492805      51.45082522
H       46.00584866      51.54731217      51.76036029
H       44.39988624      50.85897423      49.67617111
H       45.31846635      49.10311105      48.33406945
H       47.85507764      48.78824636      48.17278082
H       51.71444233      48.61990869      48.26975979
H       54.17314960      48.31380773      48.22164566
H       55.57558032      49.45949543      49.57297536
H       54.77997003      51.30879155      51.09190046
H       52.23825384      51.26101613      51.71186745
