24
Lattice="100.0 0.0 0.0 0.0 100.0 0.0 0.0 0.0 100.0" Properties=species:S:1:pos:R:3 Energy=-358654.4207347952 Energy_pyscf=-358650.5509394558 Energy_pyscf_og=-358653.969053462 pbc="F F F"
N       50.23666262      49.61089373      49.33031267
N       49.44942357      50.15062683      50.16411513
C       48.13243423      50.12173850      49.96923950
C       47.36331673      51.00363507      50.81977992
C       46.01858675      50.89181903      51.07620301
C       45.28457206      49.86038571      50.36409042
C       45.96302371      49.17180767      49.42397232
C       47.30708329      49.20108464      49.17114675
C       51.64847421      49.70922443      49.62820587
C       52.54967769      48.95978075      48.90856019
C       53.90233316      48.76748099      49.15401639
C       54.50174884      49.61329216      50.09646522
C       53.62051467      50.18208033      51.00753321
C       52.28760906      50.21702006      50.83497260
H       47.88757860      51.83303093      51.39215014
H       45.42834988      51.43421730      51.77517734
H       44.43265462      49.60528840      50.86647176
H       45.37582773      48.58825263      48.73798205
H       47.87507448      48.52090498      48.42995283
H       52.18623235      48.64018173      47.99144296
H       54.56155942      48.18053719      48.62043298
H       55.49159135      49.73253091      50.22656145
H       53.96166896      50.74982446      51.92264740
H       51.72787811      50.79487777      51.57609368
