24
Lattice="100.0 0.0 0.0 0.0 100.0 0.0 0.0 0.0 100.0" Properties=species:S:1:pos:R:3 Energy=-358657.92989600444 Energy_pyscf=-358652.8919050009 Energy_pyscf_og=-358657.49270494084 pbc="F F F"
N       50.41086358      50.10048707      50.43530141
N       49.62879452      50.17987473      49.43455957
C       48.27944729      50.04107169      49.68570573
C       47.71443401      50.80812504      50.80310211
C       46.38062805      51.03014275      50.90290703
C       45.50832860      50.52378790      49.84685762
C       45.93863931      49.52344174      48.97846442
C       47.31524301      49.42477952      48.89159955
C       51.79613618      49.94463971      50.05658865
C       52.32210856      49.28512903      48.91236974
C       53.69687470      49.04661483      48.84164201
C       54.51840000      49.80229801      49.60357624
C       53.96837000      50.74796442      50.57344471
C       52.58238054      50.69066322      50.91518989
H       48.53244834      51.41535189      51.28965093
H       45.98078469      51.65687386      51.64901182
H       44.47887206      51.13972761      49.85053804
H       45.23616693      48.98353501      48.29151491
H       47.84363855      48.66237947      48.23364945
H       51.55730189      48.80378939      48.33800457
H       54.26681046      48.24492028      48.22171774
H       55.53087035      49.50095714      49.53755401
H       54.71956238      51.18671804      51.19243391
H       52.14318641      51.32244378      51.72871255
