24
Lattice="100.0 0.0 0.0 0.0 100.0 0.0 0.0 0.0 100.0" Properties=species:S:1:pos:R:3 Energy=-358677.7484305301 Energy_pyscf=-358677.7580130573 Energy_pyscf_og=-358677.31348263985 pbc="F F F"
N       50.32913413      50.04921669      49.25375822
N       49.71172970      50.29120969      50.32604123
C       48.23684211      50.44021943      50.10042619
C       47.50107019      50.82091257      51.23906776
C       46.15714897      51.00494527      51.16918639
C       45.45419118      50.69733557      50.00862678
C       46.13322379      50.20307941      48.85220818
C       47.54090533      50.05101751      48.95485240
C       51.72762426      50.00773725      49.58347449
C       52.57370274      48.96810915      49.07043265
C       53.96183816      49.03162137      49.37217413
C       54.56475369      50.10212503      49.96012399
C       53.73008231      51.10791029      50.60969877
C       52.31562825      51.10214986      50.35042062
H       48.08170189      51.07736526      52.15566780
H       45.63771535      51.59289484      51.98862906
H       44.35445766      50.66394280      49.98411953
H       45.64308113      49.93805595      47.94062675
H       48.09352119      49.90449714      47.96531015
H       52.19814643      48.02975686      48.56362701
H       54.51114867      48.23121027      48.81908087
H       55.68596759      50.21968515      49.81172907
H       54.24822653      52.05227082      51.09021902
H       51.68002272      51.94876094      50.71262140
