24
Lattice="100.0 0.0 0.0 0.0 100.0 0.0 0.0 0.0 100.0" Properties=species:S:1:pos:R:3 Energy=-358679.4948920765 Energy_pyscf=-358678.92529846245 Energy_pyscf_og=-358679.0579148295 pbc="F F F"
N       50.47904857      50.12035178      50.60029652
N       49.63899496      49.50241358      49.87946739
C       48.30192518      49.81596954      50.03439587
C       47.85802254      50.86572951      50.78681794
C       46.47342789      51.12030766      50.72600162
C       45.54735773      50.30135437      50.04398264
C       46.07734694      49.17746937      49.42273592
C       47.40776812      48.88823420      49.44192633
C       51.82427013      49.94005448      50.34513912
C       52.21730668      49.49643110      49.02826385
C       53.55032609      49.19879420      48.76826114
C       54.53529078      49.59892178      49.73562328
C       54.13042802      49.96727330      50.97227705
C       52.77951301      50.13461558      51.35927812
H       48.52462531      51.43582889      51.37846598
H       46.12156990      52.08252710      51.21615540
H       44.39759245      50.24880309      49.86621101
H       45.39015281      48.47757464      48.85511641
H       47.94198371      47.94003155      49.17254074
H       51.40558145      49.32917806      48.27086052
H       53.79469548      48.83725469      47.78215705
H       55.62047148      49.36663562      49.49234174
H       54.93938344      49.99212212      51.68414886
H       52.47504207      50.34265574      52.43978455
