24
Lattice="100.0 0.0 0.0 0.0 100.0 0.0 0.0 0.0 100.0" Properties=species:S:1:pos:R:3 Energy=-358667.6374736381 Energy_pyscf=-358666.68273822166 Energy_pyscf_og=-358667.1985293803 pbc="F F F"
N       50.36735278      50.08431484      50.20750598
N       49.58358974      49.27168792      49.66539518
C       48.17329586      49.75870330      49.69372447
C       47.87552047      51.08029552      50.28350953
C       46.48988189      51.21530898      50.54441700
C       45.55656809      50.21573035      50.27634676
C       45.95451258      48.98357753      49.73213156
C       47.29858074      48.79646974      49.37420319
C       51.81398116      49.87235870      50.07961933
C       52.39153388      49.72052536      48.78450257
C       53.71547843      49.45237883      48.68225992
C       54.41937692      49.47119057      49.87745023
C       53.91195864      49.66488568      51.09964541
C       52.52802190      50.00599848      51.22660899
H       48.62166540      51.72476432      50.60843917
H       46.14019393      52.21252133      50.75862699
H       44.53426446      50.56261280      50.38059468
H       45.32916899      48.09228663      49.42373034
H       47.63914182      47.79281983      49.03983745
H       51.65408734      49.59536259      47.96714393
H       54.15069737      49.45056331      47.61947464
H       55.46843484      49.24946527      49.93739893
H       54.59161268      49.73703299      51.90255345
H       52.06261306      50.28455791      52.21378519
