24
Lattice="100.0 0.0 0.0 0.0 100.0 0.0 0.0 0.0 100.0" Properties=species:S:1:pos:R:3 Energy=-358667.4112162186 Energy_pyscf=-358666.73319788364 Energy_pyscf_og=-358666.9751297912 pbc="F F F"
N       50.47677939      49.22078764      49.45275458
N       49.77790796      50.20624561      49.94273419
C       48.29842582      50.02914317      49.91734049
C       47.61718439      50.90858529      50.83781033
C       46.22980292      50.78416370      51.02618323
C       45.48314996      49.83957713      50.33671843
C       46.12119992      48.89548607      49.47084642
C       47.60344135      48.99122843      49.30172043
C       51.86367853      49.47537920      49.58969826
C       52.68444203      48.92363441      48.64565467
C       54.04221816      48.86657131      49.06596891
C       54.52869220      49.37971309      50.34855306
C       53.67808518      50.14501944      51.18587970
C       52.33857404      50.07202886      50.80907127
H       48.13722552      51.70295100      51.39349027
H       45.81118273      51.53660318      51.69783239
H       44.41515768      49.96031824      50.26044003
H       45.51443613      48.35734520      48.78638905
H       48.03087236      48.44734728      48.51612973
H       52.19800252      48.32206695      47.89872000
H       54.86342339      48.31855415      48.46176177
H       55.45762523      48.97520051      50.68875792
H       54.07418345      50.73702440      52.02441378
H       51.65288734      50.53403845      51.41672608
