24
Lattice="100.0 0.0 0.0 0.0 100.0 0.0 0.0 0.0 100.0" Properties=species:S:1:pos:R:3 Energy=-358668.64682315866 Energy_pyscf=-358663.98066650744 Energy_pyscf_og=-358668.20617788023 pbc="F F F"
N       50.46683834      49.98750855      50.42490506
N       49.52383072      49.99202321      49.57188162
C       48.21139483      50.16747821      49.90632274
C       47.60038860      50.97720362      50.80779118
C       46.23954331      51.04331146      50.90006527
C       45.38376283      50.56037763      49.87859463
C       45.98798971      49.63115945      48.93007607
C       47.37324288      49.49971500      48.95632275
C       51.82994597      49.98357984      49.89545427
C       52.40180966      49.20632801      48.80932339
C       53.79905946      49.05386817      48.76622232
C       54.61301082      49.88688204      49.54290122
C       54.05499991      50.66918952      50.60154095
C       52.62459095      50.61984794      50.84575339
H       48.38873087      51.58528645      51.37126246
H       45.81684224      51.72844462      51.68870081
H       44.36017049      50.96973709      49.86235466
H       45.41625457      48.96809404      48.16174763
H       47.83927365      48.71731386      48.37348945
H       51.67508189      48.59779815      48.22657811
H       54.25693548      48.23308889      48.20322496
H       55.60723982      49.62958865      49.62984965
H       54.79337205      51.12286962      51.23089777
H       52.06918919      51.22229399      51.64083939
