24
Lattice="100.0 0.0 0.0 0.0 100.0 0.0 0.0 0.0 100.0" Properties=species:S:1:pos:R:3 Energy=-358677.8377851295 Energy_pyscf=-358678.28219633305 Energy_pyscf_og=-358677.4030809727 pbc="F F F"
N       50.32802105      50.27917489      50.40688309
N       49.62301346      49.83503584      49.49049110
C       48.23598575      50.10606656      49.66521452
C       47.75756516      50.87934184      50.81473263
C       46.36103683      51.06564884      50.82651408
C       45.46791597      50.52212357      49.89681488
C       45.95076694      49.62864589      48.95577844
C       47.27614428      49.42260147      48.88097779
C       51.78490325      50.01429849      50.05080509
C       52.24259588      49.24765884      48.98699241
C       53.65467483      49.07585701      48.86244469
C       54.57251108      49.73980325      49.65209835
C       54.06588820      50.63139005      50.60886769
C       52.70975601      50.74366891      50.81815000
H       48.38087849      51.46044868      51.40068915
H       45.99871970      51.64361857      51.69687730
H       44.46353807      50.93627736      49.81588485
H       45.30301325      49.06188449      48.20543473
H       47.77554006      48.68475032      48.21409691
H       51.65440319      48.68411316      48.32554110
H       54.06433750      48.34584581      48.14520581
H       55.64089338      49.55427248      49.61570090
H       54.78157700      51.21609589      51.10651727
H       52.25320045      51.31264613      51.74962869
