24
Lattice="100.0 0.0 0.0 0.0 100.0 0.0 0.0 0.0 100.0" Properties=species:S:1:pos:R:3 Energy=-358676.08256747975 Energy_pyscf=-358672.8733630011 Energy_pyscf_og=-358675.63792562607 pbc="F F F"
N       50.39472731      50.06488608      50.46409889
N       49.59902599      50.16680152      49.49741048
C       48.20827356      50.18345677      49.77357146
C       47.67735668      51.01696769      50.71215251
C       46.28552815      51.06967012      50.88313531
C       45.47851504      50.45970862      49.93884194
C       45.97349759      49.61038310      48.98788066
C       47.33734810      49.38120754      48.96936862
C       51.81098294      49.98351909      49.98040571
C       52.31430212      49.25082230      48.85184879
C       53.76696784      48.97117563      48.82502789
C       54.58656669      49.77274079      49.64658511
C       54.02794913      50.62187580      50.59218578
C       52.63895525      50.72646955      50.77504635
H       48.34484330      51.50029522      51.43349348
H       45.88463254      51.67718728      51.68358713
H       44.42822011      50.86865898      49.77910764
H       45.31542600      49.13101577      48.26576950
H       47.86030216      48.78818357      48.29015526
H       51.70658470      48.55178676      48.25830412
H       54.21364176      48.29486459      48.13181540
H       55.62113871      49.60276993      49.65023654
H       54.75168103      51.25434197      51.19045131
H       52.11890599      51.12102825      51.62366487
