24
Lattice="100.0 0.0 0.0 0.0 100.0 0.0 0.0 0.0 100.0" Properties=species:S:1:pos:R:3 Energy=-358669.64529618423 Energy_pyscf=-358670.44777408405 Energy_pyscf_og=-358669.20173880947 pbc="F F F"
N       50.32577772      50.17953819      49.21141496
N       49.67806464      50.17335243      50.30310833
C       48.24870863      50.42814603      50.16362914
C       47.52491690      50.74469428      51.25400210
C       46.14236656      51.01776352      51.18836929
C       45.50354452      50.59341629      50.01271703
C       46.22598445      50.11254684      48.89486843
C       47.66403356      50.08435242      48.92319007
C       51.69911015      50.07734445      49.46112496
C       52.45933099      48.93858263      49.20900358
C       53.83943278      49.04870737      49.40149088
C       54.55619268      50.06196957      49.97541127
C       53.74008961      51.10819672      50.55674005
C       52.37817366      51.12122831      50.29126399
H       48.04967576      51.07005317      52.25100081
H       45.62408220      51.47794688      52.03207070
H       44.44449975      50.78192790      49.85648181
H       45.59864465      49.99697052      47.98747343
H       48.33603449      50.01466695      48.07265198
H       52.01885007      48.11503606      48.61095157
H       54.44610670      48.21537531      48.85211049
H       55.62319056      50.23021048      49.87477794
H       54.12920305      52.05108362      51.01121721
H       51.76344566      51.98726172      50.50559620
