24
Lattice="100.0 0.0 0.0 0.0 100.0 0.0 0.0 0.0 100.0" Properties=species:S:1:pos:R:3 Energy=-358674.81535461004 Energy_pyscf=-358673.49036561337 Energy_pyscf_og=-358674.375746922 pbc="F F F"
N       50.29500198      50.17015764      50.48811426
N       49.46055679      49.37841461      49.85851459
C       48.11563674      49.86217547      49.89293561
C       47.76218207      50.88543866      50.77389739
C       46.39969685      51.15382750      50.82115715
C       45.47206165      50.43611867      50.14839665
C       45.85205232      49.26870408      49.41625698
C       47.16287629      49.01661903      49.28710260
C       51.72018052      49.90323393      50.33512384
C       52.12570905      49.29284709      49.15866282
C       53.49345416      49.29341402      48.75072123
C       54.42492460      49.75435051      49.70068026
C       54.03618909      50.18122981      51.05262335
C       52.66185969      50.24200821      51.31715681
H       48.49686934      51.54032352      51.19594449
H       46.19534844      51.96912714      51.61699678
H       44.46891160      50.81456343      50.27086399
H       45.15947260      48.48470731      49.14559821
H       47.66690302      48.13303407      48.81490835
H       51.37909405      48.82263138      48.57212729
H       53.79268992      48.79284087      47.81155213
H       55.49962561      49.88138598      49.54025636
H       54.76252498      50.67316216      51.67647796
H       52.35307961      50.87231981      52.14528550
