24
Lattice="100.0 0.0 0.0 0.0 100.0 0.0 0.0 0.0 100.0" Properties=species:S:1:pos:R:3 Energy=-358679.33754389134 Energy_pyscf=-358679.3828464475 Energy_pyscf_og=-358678.9038457082 pbc="F F F"
N       50.54402655      50.61177150      50.21060699
N       49.74507688      49.83323540      49.61739462
C       48.36627475      50.10000414      49.81366823
C       47.78342860      51.00907175      50.74676192
C       46.43356579      51.08901516      50.85240122
C       45.60693032      50.22897418      50.05689778
C       46.14947843      49.44026037      49.01748538
C       47.56501230      49.39022023      48.95004370
C       51.87348347      50.27484694      49.92463352
C       52.34367576      49.38741175      48.86309939
C       53.67884237      49.04725445      48.85727974
C       54.58551305      49.63421450      49.70235890
C       54.15171825      50.36460122      50.78190297
C       52.77729807      50.69540357      50.87924508
H       48.38880627      51.69066942      51.32741521
H       46.07680991      51.45058755      51.83290522
H       44.50240143      50.39075761      50.20361060
H       45.54346777      49.08869874      48.19037979
H       48.08030362      48.75536677      48.17848708
H       51.49966903      48.81858552      48.31221437
H       54.10456829      48.33260591      48.14921326
H       55.64159555      49.26212504      49.59569337
H       55.02190377      50.78625401      51.36318277
H       52.47831998      51.21727213      51.74023322
