24
Lattice="100.0 0.0 0.0 0.0 100.0 0.0 0.0 0.0 100.0" Properties=species:S:1:pos:R:3 Energy=-358671.4582521014 Energy_pyscf=-358667.94659798726 Energy_pyscf_og=-358671.01056225714 pbc="F F F"
N       50.41820751      49.82651297      50.67883482
N       49.64932633      49.32143251      49.83120674
C       48.25696157      49.78280314      49.85433899
C       47.77101864      50.66379838      50.78412192
C       46.42975949      50.86527588      50.96950723
C       45.46043009      50.06168962      50.29742903
C       45.97303365      49.06796922      49.41629690
C       47.30646210      49.12550780      49.09452987
C       51.90465596      49.62290372      50.39129192
C       52.29319576      48.99193316      49.29780753
C       53.61273907      48.87621141      48.94135722
C       54.56917043      49.48821454      49.74409397
C       54.22632895      50.17254013      50.93149766
C       52.86410010      50.28993083      51.20471871
H       48.54191812      51.05731677      51.49446969
H       46.01696014      51.73038334      51.62286957
H       44.45048198      50.23474951      50.51127414
H       45.15823453      48.63552590      48.74517367
H       47.69337261      48.37693808      48.38964145
H       51.48782976      48.56136336      48.73676597
H       53.90602208      48.41084167      48.06034263
H       55.58428035      49.33786463      49.26230721
H       54.95044013      50.67356589      51.51892119
H       52.60779884      50.95398840      51.99198093
