24
Lattice="100.0 0.0 0.0 0.0 100.0 0.0 0.0 0.0 100.0" Properties=species:S:1:pos:R:3 Energy=-358667.3014806362 Energy_pyscf=-358658.86058596324 Energy_pyscf_og=-358666.86886557087 pbc="F F F"
N       50.44489205      49.25292357      49.25535510
N       49.74381261      50.09792129      49.86908982
C       48.35015926      49.82027496      49.99774117
C       47.70331441      50.82792472      50.78138515
C       46.36890106      50.85111257      51.05498393
C       45.49613174      49.95056747      50.28971343
C       46.10424667      48.99748205      49.48891606
C       47.45001168      49.06572235      49.22871805
C       51.86007011      49.33946680      49.68270130
C       52.80803786      48.87717232      48.82451110
C       54.19762936      48.89449273      49.09705804
C       54.55625677      49.30264674      50.37575055
C       53.58736944      50.08160092      51.14092658
C       52.19769144      50.10816181      50.76700926
H       48.29977951      51.61072899      51.35639303
H       45.93222881      51.56645660      51.80625036
H       44.39848051      49.87831175      50.34949182
H       45.47681005      48.50049397      48.80723213
H       47.87291862      48.29348693      48.54273886
H       52.33708179      48.43939203      47.98613463
H       54.87462162      48.50414121      48.29829843
H       55.51331520      48.89636829      50.86300529
H       53.86204742      50.85835424      51.92929948
H       51.50328070      50.66019072      51.33280133
