24
Lattice="100.0 0.0 0.0 0.0 100.0 0.0 0.0 0.0 100.0" Properties=species:S:1:pos:R:3 Energy=-358667.50097811746 Energy_pyscf=-358663.5244659658 Energy_pyscf_og=-358667.07318937645 pbc="F F F"
N       50.47986796      50.62244551      50.05935789
N       49.67701487      49.79113937      49.40043745
C       48.24616784      50.07437748      49.64393323
C       47.85334502      50.88098023      50.68133679
C       46.52397409      50.77181030      51.10580266
C       45.58051063      50.07533937      50.37889274
C       46.12523317      49.21670533      49.37744867
C       47.40274974      49.14864924      49.02241620
C       51.82126723      50.20200202      50.02654424
C       52.29968901      49.35574509      48.97756980
C       53.61359221      49.00625978      48.89867003
C       54.38406625      49.10512139      50.10066407
C       54.00048326      50.09449646      51.03191570
C       52.67928839      50.59402178      51.04602291
H       48.47094866      51.63686344      51.13468597
H       46.21389154      51.47364952      51.83121457
H       44.51587402      50.10890250      50.64869299
H       45.34366977      48.59481348      48.93251554
H       47.84986091      48.45158343      48.18666240
H       51.57506323      48.95113494      48.26393517
H       54.12342455      48.39415051      48.09395340
H       55.36603350      48.79782867      49.97134564
H       54.74587434      50.51202453      51.67303874
H       52.12869430      51.15722320      51.79167283
