24
Lattice="100.0 0.0 0.0 0.0 100.0 0.0 0.0 0.0 100.0" Properties=species:S:1:pos:R:3 Energy=-358677.88413052255 Energy_pyscf=-358676.6724381697 Energy_pyscf_og=-358677.44917570567 pbc="F F F"
N       50.38427223      50.45042131      50.15742321
N       49.62963544      50.15498365      49.17918178
C       48.18601992      50.26013278      49.57520011
C       47.80987895      50.84942040      50.81146087
C       46.47470525      50.79207493      51.19018978
C       45.55048385      50.38935852      50.22643237
C       45.93616802      49.82047212      49.00722063
C       47.25960050      49.81367267      48.62416867
C       51.68253267      50.09514314      50.06551458
C       52.20601279      49.09360374      49.17048760
C       53.59467122      48.93400646      49.07452356
C       54.43234506      49.77821392      49.81382788
C       53.91388678      50.85342463      50.49486574
C       52.60425766      51.01258846      50.58493064
H       48.64803560      51.04599238      51.55267847
H       46.22566917      51.18212470      52.18936980
H       44.50940615      50.28000812      50.54426892
H       45.18048193      49.17649704      48.37514071
H       47.76014554      49.36447322      47.72789946
H       51.48481599      48.45775696      48.74124597
H       53.97705627      48.18713453      48.32047811
H       55.50891350      49.60707661      49.91436280
H       54.65990861      51.48183654      51.09558289
H       52.23387878      51.95733916      51.10860019
