24
Lattice="100.0 0.0 0.0 0.0 100.0 0.0 0.0 0.0 100.0" Properties=species:S:1:pos:R:3 Energy=-358664.9337872469 Energy_pyscf=-358664.8151431871 Energy_pyscf_og=-358664.50730397436 pbc="F F F"
N       50.25980507      49.62916843      49.31665642
N       49.49875902      50.26248414      50.14538869
C       48.14789585      50.13346251      49.97827593
C       47.43597196      50.97531088      50.95686203
C       46.09638827      50.93957646      51.04717238
C       45.41649225      49.90348714      50.40376541
C       46.08950318      49.18907824      49.29445307
C       47.51186730      49.19729989      49.13270097
C       51.63289108      49.67548823      49.62818845
C       52.45337997      48.90474986      48.79964989
C       53.75348972      48.76470245      49.23004473
C       54.32971472      49.58669255      50.18744094
C       53.52470570      50.24101431      51.12713558
C       52.10700318      50.25311300      50.79380968
H       47.99334589      51.86231605      51.39126709
H       45.53591565      51.42151263      51.82407158
H       44.48240501      49.53403938      50.83089693
H       45.44256649      48.57086551      48.68692984
H       48.05996758      48.46137113      48.59569763
H       52.09518353      48.51317745      47.89656009
H       54.49444327      48.15727381      48.53632843
H       55.42763003      49.79326400      50.16301034
H       53.92081143      50.80235780      51.98723063
H       51.49906624      50.69055297      51.59883576
