24
Lattice="100.0 0.0 0.0 0.0 100.0 0.0 0.0 0.0 100.0" Properties=species:S:1:pos:R:3 Energy=-358668.90080041764 Energy_pyscf=-358667.28463149304 Energy_pyscf_og=-358668.46062381414 pbc="F F F"
N       50.20662317      50.15477096      49.81816038
N       49.54918994      51.07381902      50.42233937
C       48.17049056      50.90692952      50.16641076
C       47.27752633      51.26869431      51.23968271
C       46.00391181      50.79396800      51.17715777
C       45.48602565      50.01021749      50.04181811
C       46.39885561      49.88644110      48.88640889
C       47.69142230      50.29641512      48.99111936
C       51.57393739      50.14277370      49.97879704
C       52.22852551      49.00454651      49.41432267
C       53.64404234      49.01423877      49.12919532
C       54.42558688      50.04605349      49.74672948
C       53.79662847      50.98915171      50.49343099
C       52.38801839      51.15839896      50.65217677
H       47.87058947      51.73939829      52.03686945
H       45.28095442      51.04373379      51.86102587
H       44.43465141      49.76338110      49.81987922
H       46.08687998      49.46659393      47.90506535
H       48.36169116      50.25198926      48.10175980
H       51.59225570      48.13244029      49.15213870
H       54.16817973      48.00676279      48.79939413
H       55.55286450      50.16221813      49.58144498
H       54.45046180      51.68883783      50.87653386
H       51.86196964      51.96206170      51.07756880
