24
Lattice="100.0 0.0 0.0 0.0 100.0 0.0 0.0 0.0 100.0" Properties=species:S:1:pos:R:3 Energy=-358673.9205483571 Energy_pyscf=-358673.88189389446 Energy_pyscf_og=-358673.4837094111 pbc="F F F"
N       50.40560268      49.89411664      50.65524686
N       49.57457855      49.23194101      49.98356207
C       48.22799599      49.63981314      50.00930434
C       47.83964442      50.97227171      50.45054455
C       46.51139321      51.26984194      50.53562373
C       45.52833897      50.36310713      49.99258742
C       45.91447531      49.13175792      49.42905027
C       47.25106400      48.75202105      49.53165001
C       51.74404117      49.60538949      50.27114807
C       52.15504969      49.41986493      48.97011168
C       53.44787588      49.39353351      48.67544245
C       54.46561775      49.63367701      49.69359454
C       54.07923462      49.95859339      51.02500326
C       52.71255954      49.94104191      51.32291185
H       48.63170989      51.57954179      50.78351759
H       46.18563163      52.36748189      50.71532533
H       44.41440388      50.51874558      50.02760525
H       45.05604155      48.43403867      49.38728882
H       47.64326091      47.77429557      49.17109744
H       51.29186470      49.46794888      48.21193242
H       53.71018055      49.53568784      47.63400610
H       55.49913853      49.81813637      49.30416364
H       54.92524303      50.10799454      51.81362335
H       52.40211941      50.27051105      52.37996758
