24
Lattice="100.0 0.0 0.0 0.0 100.0 0.0 0.0 0.0 100.0" Properties=species:S:1:pos:R:3 Energy=-358678.13036173617 Energy_pyscf=-358676.1942730222 Energy_pyscf_og=-358677.6891872051 pbc="F F F"
N       50.42840852      50.02210523      49.22557229
N       49.62420610      50.22004240      50.20323991
C       48.19846809      50.34777552      50.06614814
C       47.51002367      50.82910153      51.16016910
C       46.19355793      50.98564662      51.23343866
C       45.48810435      50.69217776      50.04188735
C       46.14320607      50.17389362      48.86884973
C       47.50629880      50.04526654      48.84471567
C       51.77057499      50.13335677      49.64712991
C       52.49441063      49.04500254      49.22582298
C       53.90258291      49.04220243      49.35884429
C       54.58762757      50.10372478      50.01696433
C       53.75109172      51.18622626      50.55804806
C       52.37469080      51.14943596      50.34337316
H       48.17721156      50.97504788      52.04387024
H       45.71713094      51.52018146      52.09482826
H       44.38130980      50.74608697      49.96955005
H       45.62499220      49.95420277      47.97042568
H       48.05808438      49.76536983      47.88660970
H       51.88702018      48.24451596      48.67710752
H       54.42902870      48.17292133      48.83237345
H       55.66358488      50.24283796      49.92807249
H       54.33671493      51.93331068      51.02515143
H       51.74925755      52.00143856      50.69830023
