24
Lattice="100.0 0.0 0.0 0.0 100.0 0.0 0.0 0.0 100.0" Properties=species:S:1:pos:R:3 Energy=-358668.4901972131 Energy_pyscf=-358663.4488391065 Energy_pyscf_og=-358668.07240632764 pbc="F F F"
N       50.23832404      49.94316273      50.63726430
N       49.51686331      49.30835063      49.75131697
C       48.22580225      49.67690062      49.99372382
C       47.95453165      50.87760776      50.75305642
C       46.58840113      51.23960038      50.82327839
C       45.61472485      50.38934542      50.18231820
C       45.90474494      49.24925152      49.44493858
C       47.18906790      48.98003117      49.27866091
C       51.66306915      49.91055954      50.32347064
C       52.06921086      49.41142255      49.11639575
C       53.45069455      49.18887956      48.87646584
C       54.37308011      49.81110514      49.69518905
C       53.98513609      50.25312900      50.92547569
C       52.59341518      50.25143883      51.36213270
H       48.73495593      51.58711546      50.95205247
H       46.25051416      52.00813067      51.49702474
H       44.55251654      50.67320930      50.33183549
H       45.07388568      48.58213895      49.15622914
H       47.52401338      48.12234668      48.70894121
H       51.23778242      49.11692309      48.53855243
H       53.63664714      48.80857615      47.85565969
H       55.43734232      49.87969286      49.66396526
H       54.73328389      50.72523643      51.65207178
H       52.21453194      50.80358300      52.21190978
