24
Lattice="100.0 0.0 0.0 0.0 100.0 0.0 0.0 0.0 100.0" Properties=species:S:1:pos:R:3 Energy=-358678.4795727809 Energy_pyscf=-358675.3546361156 Energy_pyscf_og=-358678.0376208733 pbc="F F F"
N       50.51024592      49.66339213      49.25688231
N       49.84964890      50.56638329      49.81692415
C       48.43319861      50.46317288      49.79012854
C       47.74332481      51.16176776      50.81756715
C       46.38948626      50.91194232      51.10645020
C       45.60689904      49.98545441      50.38596225
C       46.36862162      49.15899766      49.49026326
C       47.78844779      49.39996010      49.19129736
C       51.88055674      49.52175875      49.65766706
C       52.76019389      48.83884168      48.75917983
C       54.15218319      48.99185626      49.01825052
C       54.52997956      49.75381402      50.13067510
C       53.68112956      50.39096735      51.00276228
C       52.30286228      50.18214444      50.77889166
H       48.17539560      52.00894975      51.39017506
H       45.85421684      51.43082846      51.95577840
H       44.46901257      49.94659786      50.48624933
H       45.78253489      48.33375129      49.03674268
H       48.25748153      48.77873639      48.46625872
H       52.36011050      48.18054510      47.89997753
H       54.98309873      48.52904768      48.34012800
H       55.55120468      49.92456339      50.44071035
H       54.10110553      50.91638316      51.87387012
H       51.49994704      50.71711688      51.28295683
