24
Lattice="100.0 0.0 0.0 0.0 100.0 0.0 0.0 0.0 100.0" Properties=species:S:1:pos:R:3 Energy=-358673.15238507674 Energy_pyscf=-358670.68502288236 Energy_pyscf_og=-358672.7212660109 pbc="F F F"
N       50.48538662      50.52526767      50.15100139
N       49.72445586      49.76479986      49.43629623
C       48.32127952      50.00376493      49.66736241
C       47.81437101      50.85603035      50.70675506
C       46.45117193      50.82891215      51.01077708
C       45.56573678      50.02817842      50.36948555
C       46.08323801      49.17741302      49.35956118
C       47.38532893      49.26517137      49.00288503
C       51.81983965      50.15705205      50.03905003
C       52.24935927      49.33659167      49.02192474
C       53.55889712      48.94047246      48.88199587
C       54.47734341      49.17436084      49.99602422
C       54.04153876      50.17643351      50.99033623
C       52.71085774      50.67333612      51.00958667
H       48.39630742      51.77810369      51.11050743
H       46.17648252      51.48606437      51.87979026
H       44.55282131      50.02326709      50.64748945
H       45.31361655      48.59699851      48.88160028
H       47.75154852      48.53110255      48.20114454
H       51.54060848      48.94872189      48.21176082
H       54.05352684      48.33489926      48.12293843
H       55.53100069      48.80777919      49.97162833
H       54.82051066      50.47825273      51.80763595
H       52.19167664      51.15453194      51.77828622
