24
Lattice="100.0 0.0 0.0 0.0 100.0 0.0 0.0 0.0 100.0" Properties=species:S:1:pos:R:3 Energy=-358668.26378181996 Energy_pyscf=-358665.65100512764 Energy_pyscf_og=-358667.8309093951 pbc="F F F"
N       50.38326128      50.20003755      50.20894523
N       49.61183504      50.12303502      49.22726671
C       48.31132825      50.30094965      49.54212086
C       47.94772442      50.90623406      50.74320035
C       46.58854884      50.84456372      51.15553290
C       45.58577015      50.46022387      50.18290528
C       45.94179616      49.80679013      49.00705636
C       47.31105606      49.74762471      48.70995269
C       51.66905681      50.16637758      49.92761916
C       52.14737369      49.15648835      49.06010361
C       53.59735180      48.97209577      49.01792003
C       54.43085197      49.78867657      49.84062919
C       53.86277765      50.88687177      50.47016859
C       52.56504101      51.04351281      50.64058055
H       48.65876445      51.21946660      51.53216227
H       46.21156711      51.07690317      52.14801787
H       44.49235042      50.41392638      50.56197097
H       45.28224538      49.14865902      48.43893952
H       47.77814958      49.15180013      47.89071407
H       51.40966504      48.53065806      48.54266102
H       53.95903836      48.27298839      48.36112916
H       55.42765655      49.55273455      49.99534530
H       54.64977424      51.43760717      51.10909993
H       52.04914270      51.83055418      51.25921375
