24
Lattice="100.0 0.0 0.0 0.0 100.0 0.0 0.0 0.0 100.0" Properties=species:S:1:pos:R:3 Energy=-358672.30803327635 Energy_pyscf=-358671.7818201215 Energy_pyscf_og=-358671.87591361685 pbc="F F F"
N       50.35274485      50.81466925      50.28839476
N       49.53260339      50.22419204      49.50041002
C       48.19690138      50.33035677      49.86381499
C       47.64263132      50.91170931      50.98544044
C       46.23255862      50.90867182      51.36785692
C       45.44279651      50.28359361      50.34456754
C       45.89391104      49.86283128      49.07044982
C       47.26001396      49.82148163      48.85703302
C       51.75426904      50.41731612      50.06322191
C       52.21700607      49.33103050      49.20280572
C       53.51319654      48.87981701      49.30472425
C       54.44473659      49.71815848      50.01044210
C       54.06916107      50.74111390      50.87014282
C       52.73250013      51.16272232      50.90616598
H       48.30961209      51.37550573      51.70770398
H       45.99761299      51.49564014      52.23590969
H       44.40614839      50.10127430      50.60941932
H       45.33896437      49.27481416      48.35699864
H       47.65323705      49.39997994      47.89281463
H       51.41573864      48.78021461      48.71489681
H       53.95714954      47.95000995      48.68214264
H       55.59354168      49.45987168      49.94582544
H       54.90189360      51.20873022      51.54715213
H       52.35817928      51.95098102      51.55969035
