24
Lattice="100.0 0.0 0.0 0.0 100.0 0.0 0.0 0.0 100.0" Properties=species:S:1:pos:R:3 Energy=-358671.1693576049 Energy_pyscf=-358667.8073637278 Energy_pyscf_og=-358670.72869612736 pbc="F F F"
N       50.39863410      50.23563276      50.67424004
N       49.58902004      49.49986148      50.04432796
C       48.21014145      49.76870271      50.10563296
C       47.78958565      50.88099913      50.81801947
C       46.43443123      51.18412858      50.60043796
C       45.55958688      50.29043884      50.03124616
C       46.04927222      49.11594499      49.38698330
C       47.38538738      48.85919215      49.44191554
C       51.87508647      49.96562030      50.30559106
C       52.30051359      49.46574087      49.03439166
C       53.64415006      49.21235275      48.75554439
C       54.57268661      49.55900410      49.69501295
C       54.24871794      50.01975429      50.97795396
C       52.78967170      50.14590708      51.35651259
H       48.53720980      51.41675811      51.37269156
H       46.01120084      52.02075264      51.17222757
H       44.43923101      50.32951315      50.04573821
H       45.36392667      48.44256867      48.81837148
H       47.84320529      47.94997036      49.13756755
H       51.57087189      49.46138997      48.23810855
H       53.85858766      48.76945566      47.67096649
H       55.63574637      49.29333932      49.54676501
H       54.96318554      49.95786171      51.68187308
H       52.38034614      50.32999515      52.37138585
