24
Lattice="100.0 0.0 0.0 0.0 100.0 0.0 0.0 0.0 100.0" Properties=species:S:1:pos:R:3 Energy=-358663.96564658475 Energy_pyscf=-358664.2490425542 Energy_pyscf_og=-358663.54960268585 pbc="F F F"
N       50.37840304      50.25835872      50.20646399
N       49.63539965      50.25749472      49.16021155
C       48.20407803      50.22412608      49.55631906
C       47.97502588      50.69059200      50.83136116
C       46.59778598      50.77911942      51.14601912
C       45.54818025      50.37909471      50.22332557
C       45.89052852      49.80893302      48.96696118
C       47.25858831      49.86992784      48.63835080
C       51.70489917      50.21242176      49.98270536
C       52.17897058      49.11788781      49.18786220
C       53.55622915      48.94232893      49.06716919
C       54.38039737      49.82350115      49.77881275
C       53.88058996      50.99220720      50.44340425
C       52.55258213      51.06953609      50.60763307
H       48.74501633      50.91289322      51.54629132
H       46.22689165      51.22026873      52.12104842
H       44.50171508      50.37197105      50.58847189
H       45.16830217      49.25062692      48.42839905
H       47.67586014      49.41417913      47.74411198
H       51.58112001      48.35069543      48.80018672
H       54.04161762      48.14654418      48.36067494
H       55.38868696      49.63874030      50.01414085
H       54.71209078      51.44558901      51.09064913
H       52.10226487      51.91151961      51.07580197
