24
Lattice="100.0 0.0 0.0 0.0 100.0 0.0 0.0 0.0 100.0" Properties=species:S:1:pos:R:3 Energy=-358661.0027695583 Energy_pyscf=-358647.01580241456 Energy_pyscf_og=-358660.5638095401 pbc="F F F"
N       50.51823350      49.62445993      49.23356655
N       49.72092678      50.58441628      49.61223026
C       48.34612265      50.28237144      49.78657072
C       47.77853889      51.13642427      50.72196544
C       46.38929103      50.92201726      51.11666649
C       45.57238570      49.99299277      50.39315524
C       46.27274991      49.11507316      49.45518678
C       47.63089134      49.33338336      49.13498732
C       51.92153605      49.52279756      49.74398297
C       52.80283855      48.87283350      48.81877596
C       54.19168222      49.03811020      48.96665699
C       54.54512622      49.61000361      50.15679017
C       53.68338490      50.16536121      51.08518270
C       52.33609462      50.30042420      50.80720474
H       48.25543473      51.93655149      51.42722988
H       45.88142202      51.42677814      51.95292100
H       44.47570375      50.14037547      50.58568891
H       45.86441618      48.31319637      48.94590476
H       48.17141357      48.65413858      48.51970172
H       52.38718061      48.33942151      47.92342809
H       54.95757285      48.61101336      48.41722929
H       55.64043636      49.90629085      50.27429359
H       53.99571224      50.95725827      51.82734131
H       51.71174006      50.94840044      51.44366622
