24
Lattice="100.0 0.0 0.0 0.0 100.0 0.0 0.0 0.0 100.0" Properties=species:S:1:pos:R:3 Energy=-358670.5117497123 Energy_pyscf=-358670.06920572056 Energy_pyscf_og=-358670.0741609921 pbc="F F F"
N       50.42353673      50.21751463      50.40820118
N       49.60127174      49.82875749      49.52397017
C       48.24401696      50.12504033      49.72229740
C       47.72600176      50.89057634      50.74017211
C       46.33652099      51.11094380      50.80052043
C       45.44811671      50.48287824      49.93329050
C       45.87772474      49.60381619      48.95311417
C       47.28464170      49.38941522      48.90519223
C       51.81358858      50.05623436      50.01586607
C       52.25483407      49.27703095      48.91199351
C       53.66998288      49.05155241      48.83979259
C       54.53137321      49.77953053      49.61495195
C       54.09364194      50.65758129      50.61878898
C       52.70155590      50.80404168      50.87429841
H       48.42146793      51.48830242      51.47615482
H       45.90050841      51.64927449      51.65836287
H       44.45567691      50.90211953      49.80619277
H       45.38272600      49.12197392      48.22701325
H       47.86476763      48.77741893      48.32356310
H       51.62951641      48.55576157      48.24839202
H       54.15281720      48.36450133      48.14155098
H       55.58173255      49.49810015      49.62086302
H       54.85792100      51.18495345      51.18266558
H       52.11217751      51.24282556      51.65994273
