24
Lattice="100.0 0.0 0.0 0.0 100.0 0.0 0.0 0.0 100.0" Properties=species:S:1:pos:R:3 Energy=-358658.94077374594 Energy_pyscf=-358656.34534332546 Energy_pyscf_og=-358658.5131912268 pbc="F F F"
N       50.44387487      49.59220837      49.14444103
N       49.83371062      50.23230777      50.00298160
C       48.41394338      50.34157728      49.91135163
C       47.72392324      51.19650814      50.74617471
C       46.39549388      50.94231067      51.06929501
C       45.70556520      49.97228403      50.31058381
C       46.32831916      49.25245292      49.40514021
C       47.72158023      49.34078958      49.20076441
C       51.76917562      49.55700163      49.57875374
C       52.70039415      48.89339994      48.71702247
C       54.04344501      49.08175687      49.00060847
C       54.58060669      49.72428191      50.25358855
C       53.61305414      50.29842997      51.03316309
C       52.22543019      50.36533545      50.63792687
H       48.37820936      51.80632968      51.44547733
H       46.01060080      51.38068852      51.95640228
H       44.59736253      50.04146957      50.49347762
H       45.85095025      48.37310295      49.06152876
H       48.16001600      48.75472089      48.41459244
H       52.45003548      48.07644913      48.04476572
H       54.84515964      48.68138651      48.38893499
H       55.65620156      49.88349404      50.37291007
H       54.08214868      50.86334453      51.87719124
H       51.51574233      51.02037908      51.29976559
