24
Lattice="100.0 0.0 0.0 0.0 100.0 0.0 0.0 0.0 100.0" Properties=species:S:1:pos:R:3 Energy=-358682.2981439257 Energy_pyscf=-358682.6642677383 Energy_pyscf_og=-358681.86109601596 pbc="F F F"
N       50.49745471      50.53847544      50.12600496
N       49.67605766      49.85186565      49.43499674
C       48.26960378      50.15255078      49.67401110
C       47.77990891      50.93465250      50.66034099
C       46.51177507      50.83231190      51.10366608
C       45.61362525      49.98104043      50.43480696
C       46.08083724      49.13686110      49.41562290
C       47.42660540      49.23945292      49.05129267
C       51.84036721      50.10772016      49.97840837
C       52.34547230      49.35983160      48.88431360
C       53.66567892      48.93298333      48.91086717
C       54.42130275      49.17676778      50.04718107
C       54.01061560      50.15907588      51.00958533
C       52.64270096      50.57441489      51.02979848
H       48.46855043      51.67809519      51.08396692
H       46.21633657      51.51194995      51.87220408
H       44.51187117      50.00964165      50.57246225
H       45.37804063      48.54269344      48.86135061
H       47.75047794      48.49363220      48.25634705
H       51.56984135      48.99385605      48.20162402
H       54.03859708      48.31391503      48.13626247
H       55.49882835      48.84284711      49.98987956
H       54.76317401      50.39983005      51.72823555
H       52.12540785      51.20199554      51.83642682
