24
Lattice="100.0 0.0 0.0 0.0 100.0 0.0 0.0 0.0 100.0" Properties=species:S:1:pos:R:3 Energy=-358666.5872611098 Energy_pyscf=-358665.0751775307 Energy_pyscf_og=-358666.1528417145 pbc="F F F"
N       50.38280447      50.04078940      49.22485162
N       49.65958896      50.18816404      50.28614164
C       48.21638437      50.25067607      50.05491574
C       47.50482589      50.88128016      51.18930273
C       46.09822471      51.02811460      51.27731606
C       45.46152486      50.69999931      50.08506362
C       46.15075712      50.17819917      48.88746002
C       47.51793472      50.00963080      48.85210840
C       51.76857899      50.02583050      49.60855504
C       52.60145693      48.93497572      49.19689695
C       53.96755170      49.08406142      49.30928498
C       54.61266165      50.13706517      49.90646760
C       53.79822961      51.13161690      50.55307994
C       52.33802544      51.06345071      50.36993439
H       48.05902225      51.27260713      52.00806934
H       45.70998467      51.64657093      52.11277347
H       44.34657718      50.68633727      49.90111263
H       45.41518931      49.90577537      47.99187340
H       47.97236069      49.81421666      47.80333961
H       52.13092364      48.23779312      48.49071421
H       54.51730743      48.28369941      48.90320034
H       55.62032386      50.31414840      49.93976628
H       54.37273317      51.89456703      51.12300491
H       51.76463957      51.86221555      50.85600153
