24
Lattice="100.0 0.0 0.0 0.0 100.0 0.0 0.0 0.0 100.0" Properties=species:S:1:pos:R:3 Energy=-358671.84770924505 Energy_pyscf=-358670.74773232447 Energy_pyscf_og=-358671.4158126439 pbc="F F F"
N       50.53889240      50.59656634      50.09606875
N       49.76054763      49.66765961      49.69814403
C       48.31657068      50.14834185      49.72398375
C       47.73189150      51.03887944      50.62876277
C       46.35268818      51.06594023      50.87437712
C       45.49228274      50.22770888      50.11102798
C       46.10281322      49.49760412      49.09189739
C       47.46613572      49.44579704      48.87506085
C       51.87333622      50.19732660      50.00852128
C       52.40965233      49.38834685      48.87969219
C       53.74325320      49.03163354      48.74672601
C       54.65198033      49.57955378      49.73581038
C       54.26792585      50.36801892      50.78140812
C       52.90514988      50.71333712      50.88039177
H       48.42439048      51.46875610      51.40740310
H       45.90361268      51.60817576      51.86700109
H       44.42452668      50.46663251      50.16203152
H       45.55492891      49.00682940      48.25775183
H       47.90121519      48.62926219      48.24744180
H       51.71347609      49.04121541      48.12392954
H       54.20234207      48.31669475      48.09619596
H       55.63536946      49.26386210      49.62737881
H       55.01759788      50.79754898      51.47379880
H       52.60358026      51.34707195      51.72523025
