24
Lattice="100.0 0.0 0.0 0.0 100.0 0.0 0.0 0.0 100.0" Properties=species:S:1:pos:R:3 Energy=-358677.6415637973 Energy_pyscf=-358675.58298072766 Energy_pyscf_og=-358677.2042498504 pbc="F F F"
N       50.62893191      50.71130256      50.06134505
N       49.77179198      49.86589386      49.65057456
C       48.38039489      50.08517156      49.83814635
C       47.89124229      50.96671591      50.76171297
C       46.46104718      51.00106452      50.89343536
C       45.51531514      50.22020281      50.11130736
C       46.15218687      49.51207760      49.03731120
C       47.49444721      49.37542756      48.92877577
C       51.97624447      50.32408819      49.97042501
C       52.37574149      49.30853003      48.97469223
C       53.71420852      49.03417482      48.83714003
C       54.63061614      49.59933667      49.69466162
C       54.22982013      50.35516017      50.80609975
C       52.88314051      50.70320462      50.92121239
H       48.47421309      51.71381573      51.28059004
H       46.00941695      51.45653060      51.78252036
H       44.42872725      50.40742263      50.12574384
H       45.48686114      49.06612780      48.29764397
H       47.82356641      48.67558780      48.15549865
H       51.66252330      48.92641611      48.18052913
H       54.06800517      48.29278102      48.01843397
H       55.64386787      49.26526118      49.60430380
H       54.94170730      50.84889790      51.46335301
H       52.33230631      51.21085047      51.73484313
