24
Lattice="100.0 0.0 0.0 0.0 100.0 0.0 0.0 0.0 100.0" Properties=species:S:1:pos:R:3 Energy=-358668.43462058535 Energy_pyscf=-358669.24598896835 Energy_pyscf_og=-358668.0054225557 pbc="F F F"
N       50.37468255      49.34221094      49.40946940
N       49.76465813      50.04727791      50.17907851
C       48.34574776      49.99111988      50.02552564
C       47.69348216      50.80459361      50.90980229
C       46.22339818      50.79888586      51.04198758
C       45.56071479      49.91229763      50.28758060
C       46.15936027      48.95815841      49.34868966
C       47.61070684      49.01506076      49.29090726
C       51.80568418      49.44954659      49.66888945
C       52.69731635      48.86965721      48.75316587
C       54.06290981      48.78732389      49.04188356
C       54.53171421      49.27604581      50.27833817
C       53.59018442      50.13472327      51.12242516
C       52.26636816      50.20676226      50.69076286
H       48.27410342      51.72010132      51.47859827
H       45.77418677      51.56476319      51.68227671
H       44.45270657      49.94305780      50.34417910
H       45.59042286      48.27453886      48.70407376
H       48.06524523      48.45086176      48.49205159
H       52.29556984      48.29626339      47.89597207
H       54.81803383      48.25870418      48.44319259
H       55.58412761      49.09727321      50.65902706
H       53.91494698      50.68300070      52.02352533
H       51.47498842      50.69858265      51.34848455
