24
Lattice="100.0 0.0 0.0 0.0 100.0 0.0 0.0 0.0 100.0" Properties=species:S:1:pos:R:3 Energy=-358651.08582110004 Energy_pyscf=-358649.40299172763 Energy_pyscf_og=-358650.64747020387 pbc="F F F"
N       50.33175828      50.17939079      49.21253198
N       49.60964607      50.09974073      50.22453219
C       48.17643717      50.39717522      50.04787334
C       47.53419329      50.76435292      51.25428095
C       46.15121784      51.00010675      51.19693247
C       45.47627397      50.82473853      49.98285405
C       46.10681789      50.13432110      48.89168840
C       47.57606109      50.07454208      48.88322856
C       51.72364229      50.15237203      49.67897687
C       52.47161066      49.02252822      49.30876474
C       53.86801210      49.07790525      49.38743911
C       54.50811474      50.18569043      49.84293354
C       53.78777719      51.11503580      50.57167202
C       52.37874968      51.16947550      50.34471180
H       48.07432755      51.00902637      52.11448617
H       45.77986064      51.51889462      52.03289096
H       44.48111104      50.67300370      49.97149457
H       45.54790334      49.89729032      47.94501940
H       48.05905783      49.90738680      47.83762818
H       52.22931329      48.10988130      48.68104834
H       54.43991147      48.21284644      48.86558413
H       55.55959196      50.16486918      49.83716388
H       54.32730591      51.89023974      51.02606430
H       51.82405948      52.04634139      50.74100671
