24
Lattice="100.0 0.0 0.0 0.0 100.0 0.0 0.0 0.0 100.0" Properties=species:S:1:pos:R:3 Energy=-358678.8362606933 Energy_pyscf=-358680.4672621171 Energy_pyscf_og=-358678.4027507177 pbc="F F F"
N       50.34211940      49.95184866      50.35806938
N       49.63526088      49.36969767      49.50766182
C       48.21728047      49.70634576      49.79711345
C       47.82352033      50.98635953      50.17009473
C       46.47921644      51.29959105      50.46617448
C       45.53284976      50.25600583      50.25385035
C       45.93964716      49.02108880      49.69667081
C       47.31754499      48.71004193      49.46685448
C       51.75075157      49.87497814      50.14624015
C       52.32076184      49.75608254      48.83360368
C       53.66730572      49.57381545      48.69262026
C       54.48171801      49.52402154      49.92005629
C       54.00248218      49.82053291      51.15002875
C       52.59689206      49.87445400      51.27443100
H       48.61752993      51.66277486      50.33870851
H       46.08673181      52.25926136      50.76155564
H       44.50399197      50.55431514      50.47359685
H       45.17460369      48.19266903      49.54445930
H       47.67088441      47.79502731      49.03185688
H       51.64168216      49.72196547      47.93443082
H       54.24513211      49.44098212      47.71393841
H       55.48939820      49.20557667      49.78861379
H       54.72362739      49.62624836      51.95481483
H       52.01258137      50.17377654      52.11267175
