24
Lattice="100.0 0.0 0.0 0.0 100.0 0.0 0.0 0.0 100.0" Properties=species:S:1:pos:R:3 Energy=-358682.81548128533 Energy_pyscf=-358682.7615398873 Energy_pyscf_og=-358682.37766155746 pbc="F F F"
N       50.29236322      50.35147521      50.20354395
N       49.50898940      49.78636734      49.39961028
C       48.13680999      49.97312535      49.66416409
C       47.72600371      50.38318915      51.00220670
C       46.43751053      50.66879356      51.32108005
C       45.42096634      50.48206024      50.39132704
C       45.78546674      50.14601351      49.11426977
C       47.12187780      49.84258955      48.73260908
C       51.67541117      50.05686946      50.00069529
C       52.25943026      48.91443263      49.41898732
C       53.63498545      48.86601004      49.46836314
C       54.37750578      49.91407556      50.05918271
C       53.77309949      51.04925850      50.48118722
C       52.42011463      51.12542671      50.53357346
H       48.55313952      50.47527032      51.70653565
H       46.16910665      51.07280810      52.37434926
H       44.47665683      50.82852511      50.75453548
H       44.93633979      50.02818784      48.47265751
H       47.35964164      49.49452037      47.70905297
H       51.60509027      48.09686000      49.09595777
H       54.15440918      47.98239341      49.09454531
H       55.42518904      49.63550218      50.22752266
H       54.25598767      51.83755738      51.08527092
H       51.94440925      52.06798435      50.92230037
