24
Lattice="100.0 0.0 0.0 0.0 100.0 0.0 0.0 0.0 100.0" Properties=species:S:1:pos:R:3 Energy=-358664.26914502773 Energy_pyscf=-358663.1698870679 Energy_pyscf_og=-358663.82686564693 pbc="F F F"
N       50.47808030      50.16399591      50.57839022
N       49.66115769      49.60691336      49.83403285
C       48.34271402      49.91135733      50.04786054
C       47.73733677      50.97446466      50.77880198
C       46.33722000      51.15021365      50.65678395
C       45.42821269      50.26226995      49.94188065
C       46.07160799      49.08537974      49.51914973
C       47.50392097      48.94581844      49.62580781
C       51.86488246      49.85767688      50.22258326
C       52.26344730      49.50852617      48.92792354
C       53.62296599      49.27720621      48.72869657
C       54.54096895      49.49392364      49.73822518
C       54.15686493      50.01128865      51.08645477
C       52.80479132      50.07624226      51.29242398
H       48.37805561      51.53075181      51.55034130
H       46.00812858      52.04231567      51.25390256
H       44.40683544      50.34922097      50.00426003
H       45.62193428      48.23567770      48.83528999
H       47.99839443      48.08488894      49.12858852
H       51.44033365      49.31810992      48.19321519
H       53.91688689      48.79372615      47.77256530
H       55.52175148      49.25769840      49.57989878
H       55.03484174      49.94887637      51.70304028
H       52.28876280      50.26427792      52.31079970
