24
Lattice="100.0 0.0 0.0 0.0 100.0 0.0 0.0 0.0 100.0" Properties=species:S:1:pos:R:3 Energy=-358666.08709374664 Energy_pyscf=-358663.5151039886 Energy_pyscf_og=-358665.65736211266 pbc="F F F"
N       50.29651819      50.02043286      49.33321127
N       49.64511314      50.11993445      50.45466577
C       48.23873778      50.45011786      50.23422324
C       47.45842993      50.91797378      51.30639278
C       46.06750129      50.96300234      51.21232148
C       45.41825332      50.66976250      49.98095495
C       46.19382125      50.23193982      48.89195458
C       47.62854190      50.21316472      48.95591073
C       51.75947611      49.95567718      49.54923163
C       52.62623694      48.97662159      48.97293495
C       54.00934922      49.07225605      49.31489275
C       54.58701845      50.20420958      49.90636632
C       53.72855569      51.11352479      50.47809958
C       52.26927946      50.98470447      50.27412411
H       47.93867766      51.34161103      52.15817581
H       45.63588012      51.60707268      52.04674935
H       44.34988464      50.64935626      49.94520068
H       45.69559368      49.84511322      47.82524803
H       48.32623492      50.05557843      48.14635642
H       52.20539327      48.10655188      48.48081402
H       54.56697674      48.24576799      48.95897179
H       55.69501516      50.26913031      49.80882200
H       54.07017477      51.87723746      51.07919409
H       51.59048460      51.67647234      50.59073587
