24
Lattice="100.0 0.0 0.0 0.0 100.0 0.0 0.0 0.0 100.0" Properties=species:S:1:pos:R:3 Energy=-358670.52743293555 Energy_pyscf=-358671.87260346074 Energy_pyscf_og=-358670.0942364509 pbc="F F F"
N       50.55688632      50.60774400      50.16490694
N       49.75969078      49.82078685      49.50309532
C       48.35310278      50.16198967      49.71857071
C       47.73996966      50.95942360      50.76956235
C       46.39508783      50.98639082      50.82973292
C       45.52773134      50.27709315      50.02634199
C       46.09354599      49.46591699      49.07134642
C       47.54201324      49.37573651      48.87512992
C       51.97153459      50.34282903      49.95940663
C       52.38517508      49.39647466      48.96738750
C       53.73690297      49.04184680      48.89809042
C       54.67809979      49.53514899      49.74814873
C       54.24020475      50.40164036      50.78573311
C       52.92285462      50.71115381      50.99677622
H       48.32882990      51.72249530      51.35510497
H       45.94169939      51.37987910      51.71798424
H       44.46773583      50.42014424      50.25968514
H       45.42116911      49.07400254      48.27501355
H       47.88809962      48.62490800      48.19316891
H       51.60156600      49.00479634      48.32801056
H       54.12981252      48.34207624      48.06037433
H       55.61683568      49.15234873      49.47601764
H       55.07263401      50.75434117      51.36754510
H       52.58673848      51.35496106      51.79357577
