24
Lattice="100.0 0.0 0.0 0.0 100.0 0.0 0.0 0.0 100.0" Properties=species:S:1:pos:R:3 Energy=-358669.95019293984 Energy_pyscf=-358668.60801662516 Energy_pyscf_og=-358669.5167329415 pbc="F F F"
N       50.34613041      50.71439395      50.22923965
N       49.56927961      50.11812940      49.44818226
C       48.19378389      50.35595074      49.87932399
C       47.70574075      50.97886024      50.99153095
C       46.33956851      50.89282848      51.30517689
C       45.40707217      50.33082619      50.40010288
C       45.85226764      49.80053271      49.15797892
C       47.25603886      49.88151692      48.90665839
C       51.77443816      50.43441688      50.04742871
C       52.25473500      49.37677558      49.34597411
C       53.58893646      48.94317547      49.33293214
C       54.59643833      49.67599858      49.93871520
C       54.07425278      50.76262477      50.81224203
C       52.66628433      50.96638443      50.98001609
H       48.28547338      51.42362044      51.76211702
H       45.84651064      51.40512907      52.13923458
H       44.35248365      50.14990574      50.60971689
H       45.30621290      49.35398236      48.40445467
H       47.58462080      49.40918135      47.91124906
H       51.64577040      48.75891664      48.59913079
H       53.80287199      48.03225096      48.68709831
H       55.72448151      49.42017483      49.98575610
H       54.69232108      51.32361847      51.55098215
H       52.38656254      51.89488272      51.49549144
