24
Lattice="100.0 0.0 0.0 0.0 100.0 0.0 0.0 0.0 100.0" Properties=species:S:1:pos:R:3 Energy=-358681.04745175765 Energy_pyscf=-358676.56918824196 Energy_pyscf_og=-358680.59460945113 pbc="F F F"
N       50.33146469      50.04946642      50.66614923
N       49.54748761      49.36112237      49.94645429
C       48.21053154      49.86311007      49.96731587
C       47.74427177      50.93541131      50.71570813
C       46.39444540      51.17054098      50.87381731
C       45.43745583      50.41502291      50.13107729
C       45.85761203      49.29791105      49.44242650
C       47.23507431      49.06285982      49.32377089
C       51.69821461      49.81835616      50.36906016
C       52.11528755      49.39320832      49.10261669
C       53.47573493      49.39015670      48.76304964
C       54.42632636      49.86869423      49.64377257
C       54.09127661      50.22207833      50.97478967
C       52.67713266      50.27605864      51.28282544
H       48.43417059      51.65506927      51.02203783
H       46.26882137      52.02260986      51.54476908
H       44.40298128      50.72659450      50.18535580
H       45.20609614      48.50258151      49.13609291
H       47.49514571      48.01054714      48.81227833
H       51.34663409      48.90232018      48.56809846
H       53.78390072      48.83271682      47.85599208
H       55.47116730      49.75931740      49.48158252
H       54.78749368      50.61366525      51.73156467
H       52.28975041      50.66595184      52.18910971
