24
Lattice="100.0 0.0 0.0 0.0 100.0 0.0 0.0 0.0 100.0" Properties=species:S:1:pos:R:3 Energy=-358661.9954971291 Energy_pyscf=-358662.6066425023 Energy_pyscf_og=-358661.55846685346 pbc="F F F"
N       50.49171203      50.15751033      50.57475889
N       49.63796600      49.47481730      49.87191398
C       48.29457429      49.80195756      50.16227303
C       47.68334463      50.94703372      50.74895052
C       46.33658564      51.19990936      50.65064342
C       45.43756338      50.30697853      50.06633575
C       46.04299777      49.14158877      49.44904121
C       47.40954149      48.89641335      49.57018755
C       51.89129885      49.91635398      50.21116387
C       52.37548448      49.59027746      48.92398043
C       53.66397240      49.18023813      48.76363993
C       54.58746919      49.52811129      49.75700321
C       54.19413443      49.97261650      51.02607345
C       52.77989605      50.08732310      51.27085193
H       48.21764172      51.59215120      51.53908531
H       46.04178174      52.07337781      51.21224609
H       44.36964284      50.28832626      49.87521355
H       45.47049385      48.38578539      48.87899792
H       47.81948515      47.98807983      49.29495895
H       51.56588884      49.42103642      48.12043804
H       53.97411638      48.81921129      47.72380200
H       55.67494458      49.37744159      49.71320510
H       55.10214882      49.94971414      51.53707904
H       52.38210247      50.14585985      52.36192209
