24
Lattice="100.0 0.0 0.0 0.0 100.0 0.0 0.0 0.0 100.0" Properties=species:S:1:pos:R:3 Energy=-358679.38109067624 Energy_pyscf=-358676.7112661995 Energy_pyscf_og=-358678.95052452653 pbc="F F F"
N       50.48007544      50.17219116      50.57770162
N       49.69173125      49.42178363      49.98356504
C       48.27870768      49.89595494      50.07027839
C       47.76501704      50.92556856      50.83341341
C       46.41928447      51.15461891      50.69369227
C       45.52851665      50.29584333      50.04858112
C       46.04362845      49.12937673      49.36669873
C       47.45017974      48.92193103      49.48553364
C       51.88015299      49.81054664      50.30233202
C       52.25806887      49.45941244      49.02104123
C       53.61143040      49.26372772      48.74119973
C       54.54519754      49.59755048      49.71475507
C       54.20635983      50.06555702      50.98559851
C       52.82908247      50.17652067      51.32114727
H       48.41211348      51.45883981      51.50775834
H       45.98576862      52.01720831      51.18142186
H       44.47211080      50.28665518      49.96430621
H       45.39773581      48.45806203      48.86246795
H       47.89311310      47.95984545      49.10852544
H       51.44793590      49.34465265      48.25291311
H       53.90450159      48.80677417      47.79259478
H       55.58241632      49.29828862      49.53344253
H       54.99618965      49.93695265      51.73052330
H       52.40874604      50.36538613      52.24615937
