9
Lattice="100.0 0.0 0.0 0.0 100.0 0.0 0.0 0.0 100.0" Properties=species:S:1:pos:R:3 Energy=-97061.40398652115 pbc="F F F"
C       49.91827812      50.30650625      50.93033111
C       49.37032479      49.83681168      49.38420860
O       50.79115179      49.35829516      51.50436988
H       50.42614113      51.26764519      50.91782797
H       49.12867678      50.53914398      51.56673842
H       48.31464739      49.97722146      48.95688932
H       49.79078624      50.03419577      48.43326158
H       49.24442663      48.73235481      49.36372745
H       51.68535261      49.64120259      51.24291855
