9
Lattice="100.0 0.0 0.0 0.0 100.0 0.0 0.0 0.0 100.0" Properties=species:S:1:pos:R:3 Energy=-97071.42792792314 pbc="F F F"
C       50.00216789      50.22826673      50.39736380
C       49.51307304      49.82451006      49.03456076
O       50.88016131      49.32347437      51.02930699
H       50.43015749      51.16728859      50.20699209
H       49.01344884      50.32981333      51.11566400
H       48.78233710      50.58268011      48.74705346
H       50.37930455      49.72612758      48.29680333
H       48.99759277      48.83271141      49.26767661
H       51.21766290      50.06605720      51.70319667
