9
Lattice="100.0 0.0 0.0 0.0 100.0 0.0 0.0 0.0 100.0" Properties=species:S:1:pos:R:3 Energy=-97074.78767567156 pbc="F F F"
C       49.89461264      50.31310070      50.46825882
C       49.46108417      49.83386334      49.12516494
O       50.76164228      49.35575381      51.02121332
H       50.35915700      51.28429965      50.24745702
H       48.96519648      50.52046326      51.06288476
H       48.97465829      48.71570035      49.30391982
H       48.76965552      50.63224101      48.89764816
H       50.29104943      49.79142675      48.29082266
H       51.23034448      49.73645488      51.70917734
