9
Lattice="100.0 0.0 0.0 0.0 100.0 0.0 0.0 0.0 100.0" Properties=species:S:1:pos:R:3 Energy=-97080.28425540794 pbc="F F F"
C       49.82221346      50.27840963      50.22808066
C       49.45460572      49.71877261      48.91855254
O       50.71086586      49.24108230      50.73235452
H       50.38089470      51.28623476      50.10329269
H       48.95893128      50.42827479      50.98470947
H       48.90348615      50.53473122      48.46258105
H       50.47576166      49.51581726      48.45435409
H       48.89310156      48.71376524      49.01755573
H       51.10689844      49.56497968      51.54564591
