9
Lattice="100.0 0.0 0.0 0.0 100.0 0.0 0.0 0.0 100.0" Properties=species:S:1:pos:R:3 Energy=-97074.20158711207 pbc="F F F"
C       49.89451212      50.19566671      50.36913004
C       49.40601115      49.78093681      48.99521770
O       50.77795703      49.27862551      50.99761373
H       50.11112630      51.22090369      50.37236139
H       48.88734197      50.36253813      51.04684283
H       48.76180901      50.63089759      48.73257757
H       50.34057067      49.69382150      48.27352130
H       48.91402895      48.77909631      49.19576974
H       51.23819099      49.74833902      51.72647870
