9
Lattice="100.0 0.0 0.0 0.0 100.0 0.0 0.0 0.0 100.0" Properties=species:S:1:pos:R:3 Energy=-97073.07155901127 pbc="F F F"
C       49.97213063      50.23867502      50.20232464
C       49.51565117      49.77439998      48.83303656
O       50.83676608      49.29561786      50.76671968
H       50.34002419      51.30398741      50.11472368
H       49.08925433      50.15475493      50.87386492
H       49.12675297      48.69601259      49.05145592
H       48.92375502      50.55692047      48.42273108
H       50.61336112      49.83008616      48.32250582
H       51.07624498      49.54891654      51.67749418
