9
Lattice="100.0 0.0 0.0 0.0 100.0 0.0 0.0 0.0 100.0" Properties=species:S:1:pos:R:3 Energy=-97072.31750598356 pbc="F F F"
C       50.15476536      50.24836031      50.22661142
C       49.66566825      49.86477712      48.88626645
O       51.07509262      49.32885227      50.92121511
H       50.82512998      51.11908985      49.91388880
H       49.38498048      50.47326892      50.89935816
H       49.12806328      50.73154476      48.53546532
H       50.64011470      49.53071320      48.27003892
H       48.92490738      49.01758450      49.05842920
H       50.63506569      48.88091015      51.72996108
