9
Lattice="100.0 0.0 0.0 0.0 100.0 0.0 0.0 0.0 100.0" Properties=species:S:1:pos:R:3 Energy=-97068.98818481914 pbc="F F F"
C       50.03738657      50.14581048      50.29589177
C       49.55861369      49.72712775      48.93574243
O       50.91488102      49.22947554      50.91405115
H       50.59025309      51.16311752      50.26138622
H       49.14538815      50.32746738      50.98560313
H       49.11475405      50.29120247      48.19885229
H       50.40926538      49.41926617      48.19749040
H       48.83878639      48.83688248      48.80884969
H       51.16121361      49.37070576      51.80250960
