9
Lattice="100.0 0.0 0.0 0.0 100.0 0.0 0.0 0.0 100.0" Properties=species:S:1:pos:R:3 Energy=-97067.28633087692 pbc="F F F"
C       49.77935768      50.09444808      50.69787597
C       49.25255321      49.67852723      49.25111726
O       50.64835677      49.18877620      51.31204566
H       49.96765928      51.25178454      50.75589548
H       48.96821751      50.03609315      51.49335407
H       49.00130972      50.60225436      48.69242330
H       49.97816502      49.45170925      48.50664593
H       48.47273625      48.74821546      49.13208446
H       51.52726375      49.05650322      50.82246414
