9
Lattice="100.0 0.0 0.0 0.0 100.0 0.0 0.0 0.0 100.0" Properties=species:S:1:pos:R:3 Energy=-97078.15446481235 pbc="F F F"
C       50.17797923      50.39073347      50.82678836
C       49.68786224      49.94995493      49.42085459
O       51.05884841      49.45579299      51.43053258
H       50.73543768      51.39759980      50.77538551
H       49.18698895      50.43124068      51.46196062
H       48.94115159      50.59425294      48.87433800
H       50.37743624      49.57628386      48.53803938
H       49.07479088      49.01090987      49.47090132
H       50.86650409      48.60240020      51.00239386
