9
Lattice="100.0 0.0 0.0 0.0 100.0 0.0 0.0 0.0 100.0" Properties=species:S:1:pos:R:3 Energy=-97064.85987827799 pbc="F F F"
C       50.23306114      50.20976386      50.81480817
C       49.75015396      49.76157632      49.41408696
O       51.15247031      49.24144168      51.45334524
H       50.57428302      51.27750001      50.79895971
H       49.43509048      50.39410121      51.49269253
H       48.70740987      49.86807275      48.99190792
H       50.17826430      50.28195454      48.50730747
H       49.91820355      48.79154651      49.24401751
H       51.29259013      48.72249999      50.68326240
