9
Lattice="100.0 0.0 0.0 0.0 100.0 0.0 0.0 0.0 100.0" Properties=species:S:1:pos:R:3 Energy=-97071.90635762832 pbc="F F F"
C       49.85786335      50.24172571      50.34937114
C       49.39995908      49.77534468      48.97507771
O       50.81523104      49.23129453      51.01189784
H       50.36758753      51.13643392      50.23025988
H       49.11155020      50.58607427      51.04147213
H       48.91573319      50.75942642      48.78833889
H       50.25372312      49.63529839      48.28915489
H       48.79032079      48.86356608      49.01743663
H       51.20967921      49.81613826      51.71084511
