9
Lattice="100.0 0.0 0.0 0.0 100.0 0.0 0.0 0.0 100.0" Properties=species:S:1:pos:R:3 Energy=-97064.54376887377 pbc="F F F"
C       50.29009325      50.50655790      50.77500544
C       49.79841861      50.05137868      49.35012870
O       51.22647384      49.52132840      51.42640598
H       50.95402404      51.37244371      50.77545262
H       49.52924272      51.01006285      51.53538964
H       48.77049106      50.22584712      49.03186709
H       50.59756162      50.18047131      48.46461036
H       49.76669105      48.99934796      49.34008299
H       51.22950894      48.62755629      51.04726291
