9
Lattice="100.0 0.0 0.0 0.0 100.0 0.0 0.0 0.0 100.0" Properties=species:S:1:pos:R:3 Energy=-97075.05981928713 pbc="F F F"
C       49.96674601      50.19809403      50.72866076
C       49.52705322      49.66684233      49.31614120
O       50.83668228      49.19944421      51.24105355
H       50.10796443      51.31254927      50.59909281
H       49.02811029      50.23598356      51.35229085
H       48.74946642      50.27151245      48.67415020
H       50.36479326      49.45950226      48.64770915
H       48.98310858      48.68745073      49.32401248
H       51.25053358      48.81803489      50.46477140
