9
Lattice="100.0 0.0 0.0 0.0 100.0 0.0 0.0 0.0 100.0" Properties=species:S:1:pos:R:3 Energy=-97072.0434067843 pbc="F F F"
C       49.89270645      50.26743481      50.23710455
C       49.47504223      49.75897584      48.89109543
O       50.78814662      49.26685176      50.79496566
H       50.44670790      51.22461080      50.28572220
H       48.93597177      50.11266527      50.82064006
H       48.90900958      50.52868070      48.43954674
H       50.43578051      49.77697815      48.35183416
H       49.12545199      48.77538920      49.12409535
H       51.09099042      49.42263104      51.64816584
