9
Lattice="100.0 0.0 0.0 0.0 100.0 0.0 0.0 0.0 100.0" Properties=species:S:1:pos:R:3 Energy=-97063.4089487561 pbc="F F F"
C       49.52552643      50.30206765      50.49074545
C       49.18273117      49.73165710      49.21555132
O       50.49255006      49.19958898      51.06881094
H       50.27236987      51.20002348      50.36897426
H       48.66416678      50.30308477      51.33915907
H       48.57028485      50.57094823      48.72989138
H       50.13444924      49.56745460      48.60702627
H       48.58554899      48.79997652      49.33999480
H       51.42971515      49.47670365      51.39297373
