9
Lattice="100.0 0.0 0.0 0.0 100.0 0.0 0.0 0.0 100.0" Properties=species:S:1:pos:R:3 Energy=-97069.66143603281 pbc="F F F"
C       50.04753073      50.32469943      50.12526460
C       49.62991419      49.80576129      48.76767643
O       50.96968877      49.29717131      50.70301117
H       50.71892088      51.16287317      49.95461342
H       49.34294558      50.53018453      50.94819618
H       49.09029896      50.55913621      48.33736821
H       50.66635360      49.56097574      48.49639413
H       48.96749136      48.83712683      48.89384655
H       51.03250864      49.64161438      51.66263179
