9
Lattice="100.0 0.0 0.0 0.0 100.0 0.0 0.0 0.0 100.0" Properties=species:S:1:pos:R:3 Energy=-97068.5543751578 pbc="F F F"
C       50.21193284      50.36653284      50.69604707
C       49.71052788      49.91293640      49.25476423
O       51.12995587      49.39605507      51.32959578
H       50.84758305      51.49218001      50.76385923
H       49.42892071      50.58099696      51.52727948
H       50.50065384      49.82881738      48.47272052
H       49.14436307      48.91235421      49.33423868
H       48.87004413      50.49645017      49.02861646
H       50.94898140      48.50781999      50.95789126
