9
Lattice="100.0 0.0 0.0 0.0 100.0 0.0 0.0 0.0 100.0" Properties=species:S:1:pos:R:3 Energy=-97078.54853762577 pbc="F F F"
C       50.10586261      50.16957383      50.22009907
C       49.62275012      49.70815032      48.80425685
O       50.97962453      49.22360793      50.79829631
H       50.47762436      51.18172126      50.06102570
H       49.28146089      50.31824896      50.83857439
H       49.02037547      48.81827874      49.02684288
H       49.10145037      50.55906688      48.45789090
H       50.56890263      49.58624891      48.27112221
H       50.73487891      49.12285643      51.72887779
