9
Lattice="100.0 0.0 0.0 0.0 100.0 0.0 0.0 0.0 100.0" Properties=species:S:1:pos:R:3 Energy=-97074.22504668741 pbc="F F F"
C       50.05570439      50.18742501      50.18381314
C       49.64394492      49.64565563      48.81173970
O       50.95130625      49.16107923      50.71329050
H       50.67126193      51.19560369      50.22630901
H       49.13164389      50.19653500      50.86122679
H       49.04365494      48.80439631      49.19824154
H       48.94994608      50.41923239      48.42305235
H       50.51014250      49.40622447      48.21949371
H       51.05005392      49.20390087      51.78050629
