9
Lattice="100.0 0.0 0.0 0.0 100.0 0.0 0.0 0.0 100.0" Properties=species:S:1:pos:R:3 Energy=-97063.62977525368 pbc="F F F"
C       50.04077936      50.27222447      50.14073101
C       49.58860566      49.86143133      48.83903235
O       51.03869390      49.27498181      50.89365163
H       50.72158794      51.05304129      49.81145665
H       49.24110394      50.56670519      50.82856792
H       49.29923249      50.71664793      48.26579402
H       50.48972722      49.41157469      48.50507776
H       48.96130610      49.01922345      48.89126518
H       50.66513737      48.94695871      51.73420598
