9
Lattice="100.0 0.0 0.0 0.0 100.0 0.0 0.0 0.0 100.0" Properties=species:S:1:pos:R:3 Energy=-97077.47782602205 pbc="F F F"
C       50.01522578      50.17047578      50.33487613
C       49.50869603      49.78307594      48.95773125
O       50.90280232      49.27223848      50.99201169
H       50.37755576      51.26251068      50.15687296
H       48.95268500      50.21773815      50.91785458
H       50.42040547      49.80552725      48.26357157
H       49.11340616      48.73748932      49.11813518
H       48.67029078      50.47701709      48.57755085
H       51.32970922      49.78109235      51.73642843
