9
Lattice="100.0 0.0 0.0 0.0 100.0 0.0 0.0 0.0 100.0" Properties=species:S:1:pos:R:3 Energy=-97070.13414029074 pbc="F F F"
C       49.96508791      50.21736665      50.78534105
C       49.38989896      49.83905130      49.29011089
O       50.86344847      49.32199820      51.46580688
H       50.48032682      51.18675408      50.58137831
H       49.03111021      50.14320068      51.29981420
H       48.60627606      50.57352496      49.29050052
H       50.14708704      50.07710591      48.53419312
H       49.10981449      48.81324592      49.43102935
H       51.39372394      48.92694801      50.83677350
