9
Lattice="100.0 0.0 0.0 0.0 100.0 0.0 0.0 0.0 100.0" Properties=species:S:1:pos:R:3 Energy=-97078.04495303676 pbc="F F F"
C       49.97892635      50.32631502      50.24923977
C       49.51706646      49.83122268      48.83559166
O       50.86679535      49.34360303      50.81286263
H       50.54200439      51.26000447      50.04676838
H       49.00646428      50.54945792      50.70565589
H       50.45115011      49.86637205      48.32727678
H       49.12878985      48.73999553      48.95766815
H       48.82610253      50.65615799      48.50956289
H       51.17389747      49.63084314      51.67272322
