9
Lattice="100.0 0.0 0.0 0.0 100.0 0.0 0.0 0.0 100.0" Properties=species:S:1:pos:R:3 Energy=-97064.96920331867 pbc="F F F"
C       49.95527026      50.27188471      50.76637663
C       49.43095669      49.85839181      49.32697237
O       50.83430740      49.36080059      51.39326309
H       50.47826384      51.19535212      50.78381579
H       49.17719795      50.24059960      51.37207359
H       49.67695565      50.63309658      48.60673691
H       49.95726377      48.80464788      49.02126519
H       48.40298741      49.63290550      49.37494838
H       51.59701259      49.68069224      50.84955120
