9
Lattice="100.0 0.0 0.0 0.0 100.0 0.0 0.0 0.0 100.0" Properties=species:S:1:pos:R:3 Energy=-97068.69788011178 pbc="F F F"
C       50.18371973      50.21409698      50.28862956
C       49.68609905      49.80891094      48.90831556
O       51.11528653      49.27062516      50.97753710
H       50.53513055      51.16458790      50.33114696
H       49.26825217      50.16286735      50.90756463
H       49.50336223      48.83541210      48.93714361
H       48.88471347      50.56239609      48.74477498
H       50.51013515      50.02396799      48.20413993
H       50.61656245      48.94028599      51.79586007
