9
Lattice="100.0 0.0 0.0 0.0 100.0 0.0 0.0 0.0 100.0" Properties=species:S:1:pos:R:3 Energy=-97070.21132306685 pbc="F F F"
C       49.73249006      50.21048772      50.73774889
C       49.18375243      49.84994332      49.31169581
O       50.63655562      49.32319215      51.43785589
H       50.37366162      51.20227613      50.63595120
H       48.92550171      50.65170551      51.51398435
H       48.39498115      50.47687110      48.80561841
H       49.91260709      49.93795912      48.48601565
H       48.72120366      48.79772387      49.22539727
H       51.60501885      49.44010590      51.31765339
