9
Lattice="100.0 0.0 0.0 0.0 100.0 0.0 0.0 0.0 100.0" Properties=species:S:1:pos:R:3 Energy=-97074.89078054277 pbc="F F F"
C       49.85411239      50.24748373      50.48134135
C       49.37128835      49.81152528      49.09439193
O       50.73005568      49.31932318      51.08343712
H       50.27260501      51.27466614      50.40064967
H       48.84337147      50.18946964      51.11049018
H       48.63197750      50.51680203      48.77079782
H       50.35749487      50.02340014      48.35935112
H       49.22171124      48.72533386      49.18399851
H       51.36802250      49.80340079      51.64064888
