9
Lattice="100.0 0.0 0.0 0.0 100.0 0.0 0.0 0.0 100.0" Properties=species:S:1:pos:R:3 Energy=-97073.70808184253 pbc="F F F"
C       49.90629428      50.38917085      50.28720542
C       49.49801912      49.84495496      48.91891382
O       50.76640128      49.38598481      50.77619411
H       50.56440787      51.22348151      49.94761882
H       48.99613246      50.66977609      50.80607475
H       48.88179158      50.64749300      48.56428542
H       50.47566098      50.01094104      48.38786697
H       49.21517239      48.77651849      48.92120388
H       51.11820842      49.72648913      51.61213303
