9
Lattice="100.0 0.0 0.0 0.0 100.0 0.0 0.0 0.0 100.0" Properties=species:S:1:pos:R:3 Energy=-97074.12343171696 pbc="F F F"
C       50.18541136      50.40757559      50.80455506
C       49.64581589      49.96057763      49.29931002
O       51.07989658      49.46084209      51.42059215
H       50.68086505      51.41159922      50.87422012
H       49.31278754      50.63486070      51.54579889
H       50.42695480      49.93518949      48.45420111
H       49.07654758      49.08886129      49.32968744
H       48.92010342      50.72932851      48.81850715
H       50.96883409      48.58840078      50.93161696
