9
Lattice="100.0 0.0 0.0 0.0 100.0 0.0 0.0 0.0 100.0" Properties=species:S:1:pos:R:3 Energy=-97075.92517065127 pbc="F F F"
C       50.03064779      50.25481639      50.13781778
C       49.52022841      49.83358027      48.71573500
O       50.91181699      49.33559679      50.75962671
H       50.48108093      51.16770400      50.02048761
H       49.16247169      50.35426281      50.89703236
H       48.95674862      50.61518959      48.28348175
H       50.53523063      49.69125458      48.27911380
H       48.98957741      48.83229600      48.83733824
H       51.04325138      49.61926853      51.72088620
