9
Lattice="100.0 0.0 0.0 0.0 100.0 0.0 0.0 0.0 100.0" Properties=species:S:1:pos:R:3 Energy=-97067.46085439101 pbc="F F F"
C       49.67240147      50.18301937      50.74277519
C       49.13158716      49.83222168      49.34236907
O       50.53371459      49.33307771      51.40464675
H       50.06055828      51.17160682      50.60916013
H       48.82375528      49.94040807      51.34141057
H       48.81050726      48.82839318      49.46459314
H       48.48326041      50.69302681      49.15519215
H       49.97381644      49.70977864      48.59104948
H       51.51673959      49.62125282      51.40895052
