9
Lattice="100.0 0.0 0.0 0.0 100.0 0.0 0.0 0.0 100.0" Properties=species:S:1:pos:R:3 Energy=-97072.55511657619 pbc="F F F"
C       50.15862652      50.22988711      50.26842395
C       49.70539943      49.78452360      48.92626584
O       51.02151985      49.30228036      50.84676947
H       50.65399568      51.19782347      50.33815044
H       49.30280475      50.25631668      50.77511982
H       48.97848015      50.52377249      48.59205809
H       50.66129527      49.67606967      48.33157468
H       49.23919707      48.80217653      49.15450365
H       50.67985750      48.82397773      51.66842532
