9
Lattice="100.0 0.0 0.0 0.0 100.0 0.0 0.0 0.0 100.0" Properties=species:S:1:pos:R:3 Energy=-97072.41421798467 pbc="F F F"
C       50.10370552      50.31710456      50.41961799
C       49.58053836      49.95139882      49.03556316
O       51.02404091      49.41298341      51.13136949
H       50.50850243      51.38978770      50.31808262
H       49.15404734      50.62025680      50.92585575
H       49.14785292      48.98159558      49.23402896
H       48.97595909      50.81730235      48.65726922
H       50.55727781      49.90006090      48.51429940
H       50.54386136      48.61021230      51.48570060
