9
Lattice="100.0 0.0 0.0 0.0 100.0 0.0 0.0 0.0 100.0" Properties=species:S:1:pos:R:3 Energy=-97062.53543592026 pbc="F F F"
C       49.69595058      50.29205063      50.30910428
C       49.28198782      49.77277854      48.95796662
O       50.55890705      49.30611382      50.82261976
H       50.11506536      51.32234217      50.24567495
H       48.82479646      50.60156592      51.05244506
H       48.74209655      50.60900861      48.37079642
H       50.32517303      49.66196102      48.66571263
H       49.05818105      48.67765783      49.00017712
H       51.25790345      49.64984633      51.62920358
