9
Lattice="100.0 0.0 0.0 0.0 100.0 0.0 0.0 0.0 100.0" Properties=species:S:1:pos:R:3 Energy=-97078.24044549534 pbc="F F F"
C       50.04086567      50.24986621      50.21788983
C       49.54899961      49.80184441      48.80062515
O       50.89672841      49.32726495      50.78868122
H       50.56073176      51.16887891      50.06610220
H       49.15125230      50.42671196      50.90232163
H       49.02963401      50.67947476      48.33206418
H       50.56949615      49.82774804      48.36377474
H       49.04658112      48.83112109      48.89854161
H       50.97036599      49.71998894      51.66793582
