9
Lattice="100.0 0.0 0.0 0.0 100.0 0.0 0.0 0.0 100.0" Properties=species:S:1:pos:R:3 Energy=-97079.5967456755 pbc="F F F"
C       50.05148322      50.21780925      50.15057419
C       49.59524993      49.74333177      48.77038579
O       50.97546588      49.22483765      50.77020483
H       50.66394059      51.17402087      50.07947353
H       49.13179438      50.48106589      50.83279445
H       49.04590421      50.64692070      48.36987750
H       50.59290841      49.70122387      48.22530038
H       48.95560348      48.82597913      48.78864461
H       51.04439652      49.49364095      51.77469962
