9
Lattice="100.0 0.0 0.0 0.0 100.0 0.0 0.0 0.0 100.0" Properties=species:S:1:pos:R:3 Energy=-97068.83913503643 pbc="F F F"
C       50.09400034      50.23563238      50.38090449
C       49.63750477      49.82561750      49.07200259
O       51.04150215      49.27500634      51.08046544
H       50.32162291      51.32666742      50.35836164
H       49.21567915      50.29925361      51.00983055
H       49.06461002      50.67952923      48.69388002
H       50.64292825      49.66158749      48.36971125
H       48.95849785      49.00387883      49.18086643
H       50.54034338      48.67333258      51.63028875
