9
Lattice="100.0 0.0 0.0 0.0 100.0 0.0 0.0 0.0 100.0" Properties=species:S:1:pos:R:3 Energy=-97066.55525018479 pbc="F F F"
C       50.06074934      50.16845300      50.29224354
C       49.62035125      49.73805184      48.99069965
O       51.03451281      49.17282480      51.00186693
H       50.38301134      51.17361656      50.47177254
H       49.15291293      50.01879722      50.82252584
H       48.96548719      50.58497202      48.68150679
H       50.41759487      49.61295634      48.09677608
H       49.10906960      48.82638344      48.89274082
H       50.84859787      49.30929638      51.90322392
