9
Lattice="100.0 0.0 0.0 0.0 100.0 0.0 0.0 0.0 100.0" Properties=species:S:1:pos:R:3 Energy=-97073.86313124458 pbc="F F F"
C       50.18851762      50.39828993      50.77601373
C       49.73817897      49.89616493      49.37604749
O       51.03224650      49.44096481      51.28548528
H       50.74870559      51.34119700      50.74043432
H       49.43362014      50.58981036      51.42505560
H       48.96775350      50.48520071      48.83326717
H       50.49705701      50.04660831      48.57494440
H       49.46123601      48.76769322      49.25071950
H       50.89740116      48.65880300      50.76724301
