9
Lattice="100.0 0.0 0.0 0.0 100.0 0.0 0.0 0.0 100.0" Properties=species:S:1:pos:R:3 Energy=-97069.79444007385 pbc="F F F"
C       49.75640401      50.08708458      50.55568832
C       49.29979774      49.61877643      49.18167277
O       50.67516662      49.10253184      51.17494612
H       50.20551866      51.01317858      50.36380952
H       48.90459731      50.22075235      51.20541523
H       48.87610521      50.64667874      48.85917691
H       50.14034803      49.13953418      48.69646409
H       48.53247012      48.98682142      49.35297334
H       51.46752988      49.69964846      51.30353591
