9
Lattice="100.0 0.0 0.0 0.0 100.0 0.0 0.0 0.0 100.0" Properties=species:S:1:pos:R:3 Energy=-97066.97488078575 pbc="F F F"
C       50.02566279      50.20220538      50.34117300
C       49.65097045      49.61444389      48.98710114
O       50.97526842      49.10057730      50.88766268
H       50.54017936      51.28764837      50.33373113
H       49.33337050      50.42445519      51.09360309
H       49.09119146      50.17766946      48.16985721
H       50.54547883      49.42344381      48.32457887
H       49.02473158      48.71235163      48.92185886
H       50.95204076      49.37810728      51.83014279
