9
Lattice="100.0 0.0 0.0 0.0 100.0 0.0 0.0 0.0 100.0" Properties=species:S:1:pos:R:3 Energy=-97068.09002054343 pbc="F F F"
C       50.17496664      50.45664444      50.73739416
C       49.72457732      49.95290805      49.33553912
O       51.09213258      49.44595023      51.32456328
H       50.75112227      51.44999786      50.68454122
H       49.39018626      50.46176711      51.45606731
H       49.47313987      48.93063098      49.14882835
H       48.90786742      50.33146255      48.82566304
H       50.43257585      50.25564797      48.54393269
H       51.06828784      48.55000214      50.99049387
