9
Lattice="100.0 0.0 0.0 0.0 100.0 0.0 0.0 0.0 100.0" Properties=species:S:1:pos:R:3 Energy=-97067.69439660817 pbc="F F F"
C       50.29551383      50.32647188      50.70565345
C       49.83827933      49.83053345      49.29969977
O       51.15489865      49.36309872      51.23762356
H       50.73160338      51.37617276      50.59791511
H       49.55204957      50.25063301      51.46004115
H       48.84510135      50.31399016      48.84612539
H       50.60913931      49.74202823      48.53995885
H       49.29688647      48.83749132      49.31192363
H       50.71713898      48.62382724      50.92477096
