9
Lattice="100.0 0.0 0.0 0.0 100.0 0.0 0.0 0.0 100.0" Properties=species:S:1:pos:R:3 Energy=-97068.7391572702 pbc="F F F"
C       49.88212372      50.30129239      50.63526035
C       49.46812272      49.83354889      49.34142606
O       50.77193699      49.33548136      51.22133199
H       50.60977748      51.16825447      50.51274441
H       49.16283163      50.68009451      51.35975616
H       48.82436389      50.51084734      48.64024384
H       50.34038970      49.32005366      48.87402976
H       48.86490642      48.83174553      49.38852276
H       51.17563611      48.95931561      50.32277734
