9
Lattice="100.0 0.0 0.0 0.0 100.0 0.0 0.0 0.0 100.0" Properties=species:S:1:pos:R:3 Energy=-97064.35494589967 pbc="F F F"
C       49.75182781      50.06567223      50.54061233
C       49.31646103      49.59854475      49.20756978
O       50.66341064      49.08599703      51.15189496
H       49.98156824      51.10995528      50.56418118
H       48.75308156      49.94925985      50.91951060
H       48.72613119      50.38603009      48.88397354
H       50.04127324      49.31596531      48.53428489
H       48.55151051      48.89004472      49.46716484
H       51.44848949      49.57810371      51.46571511
