9
Lattice="100.0 0.0 0.0 0.0 100.0 0.0 0.0 0.0 100.0" Properties=species:S:1:pos:R:3 Energy=-97069.18234271627 pbc="F F F"
C       49.92173030      50.30522881      50.64456776
C       49.50318466      49.83998982      49.34503639
O       50.81442297      49.33951755      51.23612692
H       50.66494610      51.13994450      50.41410937
H       49.20264204      50.64787344      51.36508899
H       48.87617204      50.49849368      48.63491101
H       50.42923156      49.34726275      48.80268148
H       48.92335611      48.86005550      49.33082154
H       51.12382796      48.97714817      50.46339737
