9
Lattice="100.0 0.0 0.0 0.0 100.0 0.0 0.0 0.0 100.0" Properties=species:S:1:pos:R:3 Energy=-97070.06191124948 pbc="F F F"
C       50.19392660      50.08040948      50.23980740
C       49.70447108      49.68154500      48.88177816
O       51.13608033      49.13379840      50.94498743
H       50.78713350      50.98019366      50.19696923
H       49.20518244      50.18794147      50.67574222
H       49.11730037      50.59506445      48.73434151
H       50.35623112      49.46024939      48.06170798
H       48.84659481      49.01980634      48.98634144
H       51.15340519      49.29335578      51.93829202
