9
Lattice="100.0 0.0 0.0 0.0 100.0 0.0 0.0 0.0 100.0" Properties=species:S:1:pos:R:3 Energy=-97066.92784458447 pbc="F F F"
C       49.96151527      50.16788873      50.60820023
C       49.50835071      49.70213427      49.24345447
O       50.82941254      49.22121553      51.17465945
H       50.65701875      51.18438512      50.31440581
H       49.17028269      50.32617094      51.42366861
H       48.78752667      48.81561488      49.26984435
H       48.83197012      50.31710168      48.72121752
H       50.43024722      49.49888143      48.57633139
H       51.21247333      49.03468740      50.37092414
