9
Lattice="100.0 0.0 0.0 0.0 100.0 0.0 0.0 0.0 100.0" Properties=species:S:1:pos:R:3 Energy=-97068.83137948245 pbc="F F F"
C       49.92729002      50.26265044      50.91048361
C       49.44221232      49.82168135      49.51374703
O       50.77547743      49.35050622      51.47858706
H       50.18109059      51.29337354      51.22636433
H       49.06552550      49.97503503      51.34859814
H       49.39522938      48.70662646      49.60237128
H       48.36290930      50.14202060      49.54596226
H       49.92533025      50.10939390      48.52141294
H       51.63709070      49.32255689      50.98079045
