12
Lattice="100.0 0.0 0.0 0.0 100.0 0.0 0.0 0.0 100.0" Properties=species:S:1:pos:R:3 Energy=-145432.84375 Energy_pyscf=-145432.0324760516 Energy_nn=-145432.6875 pbc="F F F"
C       48.97838713      49.10598362      49.56948882
C       48.55133893      50.37298662      49.96387132
C       49.54761698      51.29580732      50.36181739
C       50.93131487      51.00140325      50.23918173
C       51.31473238      49.75923915      49.78117129
C       50.35898238      48.79909949      49.52283294
H       48.24100641      48.30382938      49.35831345
H       47.53098533      50.48925186      50.03610827
H       49.19556180      52.23605788      50.87860386
H       51.63400740      51.79660175      50.58196404
H       52.44287152      49.59182665      49.73445412
H       50.65484417      47.83277665      49.13429092
