12
Lattice="100.0 0.0 0.0 0.0 100.0 0.0 0.0 0.0 100.0" Properties=species:S:1:pos:R:3 Energy=-145430.71875 Energy_pyscf=-145428.40624857415 Energy_nn=-145430.484375 pbc="F F F"
C       49.08396046      49.07081449      49.73638092
C       48.65592287      50.33679058      50.20335403
C       49.52275773      51.35496313      50.42647853
C       50.87904346      51.00743991      50.26119977
C       51.27058085      49.74409372      49.93006479
C       50.36706741      48.72081710      49.55205443
H       48.26963027      48.42908005      49.47693852
H       47.59686999      50.43235153      50.38393946
H       49.19432089      52.35586936      50.73015607
H       51.61774716      51.84196993      50.43386830
H       52.35696843      49.62712080      49.91090562
H       50.58191472      47.70919143      49.25358630
