12
Lattice="100.0 0.0 0.0 0.0 100.0 0.0 0.0 0.0 100.0" Properties=species:S:1:pos:R:3 Energy=-145415.546875 Energy_pyscf=-145404.8814701748 Energy_nn=-145417.03125 pbc="F F F"
C       49.01764051      49.02216270      49.82202898
C       48.50740807      50.26137721      50.18645421
C       49.54206830      51.25043457      50.56458680
C       50.94555481      50.96931063      50.45444128
C       51.33893913      49.69105606      50.11863836
C       50.29395882      48.77399058      49.81541741
H       48.46408178      48.31758657      49.19747390
H       47.55810743      50.52013695      50.47985718
H       49.17792829      52.32877360      50.47181266
H       51.66919178      51.72843665      50.36982921
H       52.38467266      49.54818317      49.74917598
H       50.60379913      47.87207426      49.20887137
