12
Lattice="100.0 0.0 0.0 0.0 100.0 0.0 0.0 0.0 100.0" Properties=species:S:1:pos:R:3 Energy=-145417.703125 Energy_pyscf=-145409.63891689703 Energy_nn=-145418.640625 pbc="F F F"
C       49.01335624      49.14187950      49.52055150
C       48.61321894      50.39365202      49.93801337
C       49.43833057      51.37316696      50.24157207
C       50.84533734      51.06599464      50.22523960
C       51.25750927      49.83340985      49.75640734
C       50.40936498      48.78853742      49.51926256
H       48.34337802      48.43775629      49.29907722
H       47.61063228      50.43372118      50.07362697
H       49.10514639      52.34012796      50.76049257
H       51.60552906      51.87924158      50.07321672
H       52.36204132      49.64931827      49.89665006
H       50.63186832      47.73227316      49.39100960
