12
Lattice="100.0 0.0 0.0 0.0 100.0 0.0 0.0 0.0 100.0" Properties=species:S:1:pos:R:3 Energy=-145428.765625 Energy_pyscf=-145426.17936542342 pbc="F F F"
C       49.02004704      49.10549366      49.57444295
C       48.60014808      50.29490750      50.02391892
C       49.58286128      51.33361312      50.33779278
C       50.93838719      51.08941081      50.22007352
C       51.31194185      49.74983626      49.77612181
C       50.33865370      48.80713087      49.51585198
H       48.24378636      48.36443461      49.37537889
H       47.51237951      50.54628294      50.01406916
H       49.17079248      52.11549060      50.89539865
H       51.62149255      51.83504809      50.60725064
H       52.37948194      49.54563954      49.72081697
H       50.67454420      47.79711451      49.15364152
