12
Lattice="100.0 0.0 0.0 0.0 100.0 0.0 0.0 0.0 100.0" Properties=species:S:1:pos:R:3 Energy=-145431.015625 Energy_pyscf=-145428.97600130434 pbc="F F F"
C       49.05032517      49.00197656      49.83199561
C       48.60650050      50.29574968      50.20569964
C       49.55624322      51.26081229      50.54761359
C       50.95033711      50.90131820      50.42837615
C       51.36116689      49.61185595      50.00732434
C       50.43060196      48.67055004      49.69455953
H       48.25300258      48.31952871      49.49352011
H       47.57538824      50.42868885      50.13541169
H       49.24672976      52.28294070      50.82406501
H       51.72254279      51.69295062      50.66762084
H       52.42463904      49.16873259      49.99670296
H       50.65531340      47.68160074      49.19729873
