12
Lattice="100.0 0.0 0.0 0.0 100.0 0.0 0.0 0.0 100.0" Properties=species:S:1:pos:R:3 Energy=-145437.703125 Energy_pyscf=-145435.93262457373 Energy_nn=-145435.75 pbc="F F F"
C       48.98240040      49.04564532      49.72079678
C       48.54601074      50.26720347      50.13568549
C       49.48177747      51.26759824      50.46348822
C       50.86891922      51.02541228      50.35323433
C       51.30857601      49.77115568      49.95369003
C       50.34591631      48.77413447      49.62082436
H       48.21335945      48.29770337      49.43920574
H       47.49828124      50.47801642      50.13138902
H       49.12569363      52.24013425      50.74177994
H       51.58418235      51.84626314      50.43184273
H       52.37875980      49.54515737      49.99518282
H       50.68445267      47.78404525      49.27756164
