12
Lattice="100.0 0.0 0.0 0.0 100.0 0.0 0.0 0.0 100.0" Properties=species:S:1:pos:R:3 Energy=-145422.046875 Energy_pyscf=-145422.5667979126 Energy_nn=-145422.953125 pbc="F F F"
C       48.96083311      49.10886598      49.56733157
C       48.66538697      50.33048436      50.04696828
C       49.52978417      51.36883732      50.28094096
C       50.87899141      51.04309592      50.25377257
C       51.30821906      49.73894858      49.81031637
C       50.33928017      48.78510034      49.49490399
H       48.33351786      48.33140148      49.33310903
H       47.60892239      50.61938576      49.93302740
H       49.10590576      52.32437779      50.70694783
H       51.63495212      51.77261097      50.49792603
H       52.35059567      49.54177744      49.62086937
H       50.62433993      47.66269102      49.39290697
