12
Lattice="100.0 0.0 0.0 0.0 100.0 0.0 0.0 0.0 100.0" Properties=species:S:1:pos:R:3 Energy=-145429.203125 Energy_pyscf=-145427.78471114484 pbc="F F F"
C       49.00129181      49.01943717      49.82769040
C       48.59175097      50.28218843      50.15050394
C       49.52017088      51.27298383      50.49958552
C       50.85055495      50.98006458      50.43000212
C       51.29334430      49.69932715      50.00066344
C       50.30889575      48.68032078      49.66515029
H       48.30941189      48.15346269      49.74770564
H       47.58554923      50.46535709      50.35986962
H       49.04004673      52.24338919      50.72334215
H       51.57340174      51.70703107      50.64082043
H       52.40706416      49.53558691      49.94486325
H       50.62175007      47.73454587      49.25279903
