12
Lattice="100.0 0.0 0.0 0.0 100.0 0.0 0.0 0.0 100.0" Properties=species:S:1:pos:R:3 Energy=-145419.015625 Energy_pyscf=-145415.12149709425 Energy_nn=-145419.4375 pbc="F F F"
C       49.04092551      49.13178584      49.75861731
C       48.63720946      50.33629529      50.02748389
C       49.54190440      51.37457880      50.36971444
C       50.87491755      51.05259912      50.31490464
C       51.25313359      49.75557662      49.89757569
C       50.31168832      48.72479342      49.58842735
H       48.26162904      48.45194719      49.29858108
H       47.65928489      50.61479118      49.97126359
H       49.16120442      52.25223304      50.92112402
H       51.64644782      51.83739763      50.56366863
H       52.31867456      49.41881362      49.93713065
H       50.67333551      47.76435508      49.34614763
