12
Lattice="100.0 0.0 0.0 0.0 100.0 0.0 0.0 0.0 100.0" Properties=species:S:1:pos:R:3 Energy=-145430.5625 Energy_pyscf=-145429.5334537533 pbc="F F F"
C       49.04945904      49.08546244      49.58512857
C       48.61645224      50.37252528      49.95316273
C       49.55971935      51.37622487      50.25560903
C       50.92536436      51.04427629      50.11702229
C       51.38569490      49.69234533      49.81410501
C       50.39542308      48.78766556      49.44653404
H       48.33880423      48.33114530      49.38876991
H       47.59118022      50.44187838      50.27338553
H       49.26124447      52.28334926      50.73019506
H       51.61569316      51.89013664      50.28390672
H       52.44026181      49.41979279      49.78121285
H       50.57021877      47.72494886      49.26177241
