12
Lattice="100.0 0.0 0.0 0.0 100.0 0.0 0.0 0.0 100.0" Properties=species:S:1:pos:R:3 Energy=-145425.953125 Energy_pyscf=-145423.91517254722 Energy_nn=-145426.328125 pbc="F F F"
C       48.98196645      49.07684348      49.74137886
C       48.53570774      50.30198294      50.21912699
C       49.56652927      51.26316333      50.57896715
C       50.97271484      51.04716963      50.35226906
C       51.37295947      49.68123297      50.03581868
C       50.38584186      48.79551469      49.66073970
H       48.28606931      48.34819586      49.36640045
H       47.49240879      50.51597564      50.38711571
H       49.09624880      52.19746786      50.59091962
H       51.70897651      51.87280043      50.40596732
H       52.41114150      49.45624869      49.82482938
H       50.70270749      47.75118276      49.28334013
