12
Lattice="100.0 0.0 0.0 0.0 100.0 0.0 0.0 0.0 100.0" Properties=species:S:1:pos:R:3 Energy=-145428.6875 Energy_pyscf=-145427.42170029576 pbc="F F F"
C       49.02582868      49.11335351      49.67887617
C       48.61808302      50.33210570      50.13507513
C       49.55870098      51.33636063      50.46793364
C       50.86240516      51.00118543      50.35626386
C       51.26083358      49.72512480      50.00117544
C       50.36932864      48.76674382      49.61548071
H       48.28815212      48.34751693      49.47535702
H       47.60948698      50.50140729      50.44511984
H       49.25856640      52.30679079      50.68729611
H       51.54623016      51.87331504      50.41078348
H       52.30706747      49.52957963      49.81014873
H       50.68612278      47.76430914      49.25068079
