12
Lattice="100.0 0.0 0.0 0.0 100.0 0.0 0.0 0.0 100.0" Properties=species:S:1:pos:R:3 Energy=-145419.640625 Energy_pyscf=-145418.17043666684 Energy_nn=-145419.828125 pbc="F F F"
C       49.11548996      48.96093258      49.72729931
C       48.70472539      50.25753126      50.12530069
C       49.64708780      51.18264049      50.52280745
C       51.01196458      50.88915962      50.38452201
C       51.29057575      49.62572443      49.97038730
C       50.48941801      48.62811129      49.62102331
H       48.38042770      48.28052474      49.35785388
H       47.58713982      50.43887999      50.36454436
H       49.32465075      52.20861414      50.74751647
H       51.69473622      51.60033431      50.53127982
H       52.33287953      49.33696926      50.07271123
H       50.77712036      47.68257357      49.20530831
