12
Lattice="100.0 0.0 0.0 0.0 100.0 0.0 0.0 0.0 100.0" Properties=species:S:1:pos:R:3 Energy=-145426.265625 Energy_pyscf=-145424.51878578262 Energy_nn=-145426.421875 pbc="F F F"
C       49.05094940      49.04093278      49.62308563
C       48.58550107      50.29853003      50.01120551
C       49.55934958      51.34201101      50.24104296
C       50.96404027      51.01074078      50.27786277
C       51.34962998      49.69303656      49.86975086
C       50.38520433      48.76954628      49.47587901
H       48.25825542      48.36369943      49.49243630
H       47.48904238      50.57193872      50.15786426
H       49.23392782      52.27941749      50.79172286
H       51.71250677      51.69070390      50.81387153
H       52.46664038      49.42040625      49.90955677
H       50.72121177      47.66704240      49.15667575
