12
Lattice="100.0 0.0 0.0 0.0 100.0 0.0 0.0 0.0 100.0" Properties=species:S:1:pos:R:3 Energy=-145429.828125 Energy_pyscf=-145427.80059600744 Energy_nn=-145429.828125 pbc="F F F"
C       49.03357098      49.00082472      49.81847083
C       48.58784143      50.29577459      50.23318304
C       49.47465966      51.26320867      50.48326074
C       50.83317932      50.95406499      50.39575705
C       51.29259193      49.73275908      49.99246152
C       50.37765531      48.68427756      49.68544822
H       48.37493897      48.24494428      49.75147502
H       47.47457123      50.44376873      50.29734654
H       49.09835269      52.24305302      50.75726061
H       51.59858268      51.65984013      50.64657395
H       52.35651309      49.52784418      49.93844726
H       50.65508691      47.73472557      49.29529308
