12
Lattice="100.0 0.0 0.0 0.0 100.0 0.0 0.0 0.0 100.0" Properties=species:S:1:pos:R:3 Energy=-145438.109375 Energy_pyscf=-145434.71164414348 Energy_nn=-145435.328125 pbc="F F F"
C       49.06203634      49.02305658      49.78108907
C       48.59119358      50.32581207      50.13190885
C       49.54834487      51.31621855      50.43806976
C       50.93807942      50.96299321      50.40459393
C       51.35567858      49.67151647      49.95801725
C       50.43251400      48.71273887      49.64152386
H       48.34143013      48.30067254      49.54076265
H       47.51066959      50.51978691      50.16242793
H       49.21278459      52.29749465      50.73362572
H       51.60853875      51.77474315      50.66794814
H       52.41746051      49.47991141      49.95409278
H       50.70805125      47.72524506      49.27007813
