12
Lattice="100.0 0.0 0.0 0.0 100.0 0.0 0.0 0.0 100.0" Properties=species:S:1:pos:R:3 Energy=-145416.09375 Energy_pyscf=-145409.60078422565 Energy_nn=-145417.390625 pbc="F F F"
C       49.11959318      49.03869201      49.86105988
C       48.64245456      50.32781630      50.24747867
C       49.62904867      51.34596387      50.45658805
C       50.96388569      50.87260230      50.46707010
C       51.39789947      49.74606549      49.89435747
C       50.50755787      48.70003917      49.63016436
H       48.40258498      48.26962475      49.30660313
H       47.58407389      50.58342377      50.30182435
H       49.46298160      52.37367816      50.54753251
H       51.65887272      51.69610930      50.53467634
H       52.44045772      49.63267143      50.01721639
H       50.66353704      47.65974851      49.48535493
