12
Lattice="100.0 0.0 0.0 0.0 100.0 0.0 0.0 0.0 100.0" Properties=species:S:1:pos:R:3 Energy=-145431.84375 Energy_pyscf=-145431.20633004612 pbc="F F F"
C       49.02378266      48.99691910      49.72784345
C       48.64338755      50.29053124      50.05999900
C       49.56791858      51.33786410      50.38454601
C       50.93092921      50.98430935      50.36578028
C       51.32058010      49.66552566      49.89076120
C       50.37822687      48.73056939      49.60495659
H       48.26493614      48.24850260      49.55243799
H       47.56207205      50.48061115      50.04052953
H       49.21101797      52.29106782      50.80154905
H       51.64634275      51.67769267      50.70628895
H       52.40011518      49.33172985      49.91183204
H       50.57325373      47.75563524      49.18572292
