12
Lattice="100.0 0.0 0.0 0.0 100.0 0.0 0.0 0.0 100.0" Properties=species:S:1:pos:R:3 Energy=-145436.515625 Energy_pyscf=-145435.729166096 Energy_nn=-145435.640625 pbc="F F F"
C       49.10403409      49.01042033      49.65006116
C       48.73627024      50.30267400      50.06393462
C       49.67323453      51.27732725      50.43962985
C       51.01661825      50.97208625      50.35438439
C       51.41280627      49.65926838      49.91559721
C       50.45847460      48.68748084      49.54437139
H       48.38131012      48.25294912      49.38682279
H       47.63447997      50.39216323      50.13884350
H       49.35948902      52.24490942      50.76916862
H       51.80333243      51.67587009      50.66263209
H       52.44036989      49.40090992      49.84634390
H       50.78950925      47.67763942      49.23944337
