12
Lattice="100.0 0.0 0.0 0.0 100.0 0.0 0.0 0.0 100.0" Properties=species:S:1:pos:R:3 Energy=-145428.640625 Energy_pyscf=-145429.4592964766 Energy_nn=-145428.6875 pbc="F F F"
C       49.02898748      48.89193176      49.84124658
C       48.65121292      50.11390859      50.34680963
C       49.53305954      51.15987829      50.61758534
C       50.94012194      50.81781226      50.54568580
C       51.33312217      49.55389734      50.18796669
C       50.38787976      48.64989888      49.74600384
H       48.20795997      48.18380312      49.63634565
H       47.57154523      50.36065878      50.39459883
H       49.26284339      52.18813089      50.82419397
H       51.69781927      51.53967386      50.87778555
H       52.38017618      49.23106373      50.17812740
H       50.70222606      47.82144684      49.06786628
