12
Lattice="100.0 0.0 0.0 0.0 100.0 0.0 0.0 0.0 100.0" Properties=species:S:1:pos:R:3 Energy=-145417.078125 Energy_pyscf=-145411.2451406096 Energy_nn=-145418.375 pbc="F F F"
C       49.10318389      49.04234780      49.82435207
C       48.64055545      50.36318374      50.20333679
C       49.66040422      51.26945942      50.54724006
C       50.93291387      50.87975496      50.47888635
C       51.43480266      49.65951817      49.98965198
C       50.46268397      48.74325081      49.63185144
H       48.31674066      48.39252798      49.26946913
H       47.58494915      50.50600714      50.24750309
H       49.44864718      52.37033863      50.56733653
H       51.68221920      51.72844627      50.47050851
H       52.44860027      49.67099693      49.89256510
H       50.73246998      47.60672487      49.57623739
