12
Lattice="100.0 0.0 0.0 0.0 100.0 0.0 0.0 0.0 100.0" Properties=species:S:1:pos:R:3 Energy=-145424.40625 Energy_pyscf=-145422.83498081483 Energy_nn=-145424.671875 pbc="F F F"
C       49.03126393      48.98452826      49.72711103
C       48.62220440      50.29367656      50.18454765
C       49.60942243      51.29000996      50.53135222
C       51.04728651      50.98551973      50.39781360
C       51.43343513      49.63046001      49.95412466
C       50.42780923      48.64675329      49.64835505
H       48.23176208      48.23682074      49.34165101
H       47.50875810      50.58820080      50.21080585
H       49.34745584      52.35327154      50.76340172
H       51.78209937      51.68851494      50.45115317
H       52.51791738      49.54237162      49.70329896
H       50.78397642      47.61451889      49.30303886
