12
Lattice="100.0 0.0 0.0 0.0 100.0 0.0 0.0 0.0 100.0" Properties=species:S:1:pos:R:3 Energy=-145430.421875 Energy_pyscf=-145429.15855322577 Energy_nn=-145430.484375 pbc="F F F"
C       49.06534778      48.98999907      49.71154574
C       48.66493058      50.32633894      50.04156157
C       49.64241220      51.28482055      50.30707935
C       50.99989273      50.97762581      50.30103729
C       51.35018667      49.66889274      49.94683529
C       50.47173369      48.71246008      49.53334739
H       48.39902665      48.19497478      49.27843827
H       47.63889051      50.63803654      50.12976806
H       49.28046410      52.18023219      50.82510098
H       51.78420587      51.67623269      50.59595586
H       52.38203841      49.36067156      49.83505425
H       50.80895413      47.74904326      49.11446450
