12
Lattice="100.0 0.0 0.0 0.0 100.0 0.0 0.0 0.0 100.0" Properties=species:S:1:pos:R:3 Energy=-145437.703125 Energy_pyscf=-145435.34078713998 Energy_nn=-145435.578125 pbc="F F F"
C       49.01309279      49.07342614      49.62940223
C       48.61120742      50.32385731      50.04403558
C       49.60465852      51.27863101      50.35804223
C       51.00673160      51.01821950      50.28005163
C       51.37166269      49.73013052      49.88559452
C       50.38167361      48.79321662      49.53109097
H       48.26739840      48.32664309      49.39981650
H       47.55842931      50.53493513      50.17063612
H       49.23658068      52.20922395      50.79869897
H       51.71539622      51.67241676      50.75514564
H       52.42555316      49.41624315      49.92589771
H       50.66601355      47.77187269      49.23060482
