12
Lattice="100.0 0.0 0.0 0.0 100.0 0.0 0.0 0.0 100.0" Properties=species:S:1:pos:R:3 Energy=-145431.4375 Energy_pyscf=-145430.78557148433 Energy_nn=-145431.484375 pbc="F F F"
C       49.09976420      48.93538012      49.94038128
C       48.69319292      50.27419978      50.26343506
C       49.70349260      51.22542574      50.51944483
C       51.02268491      50.98017040      50.52110011
C       51.43985970      49.73057391      49.97147153
C       50.46497110      48.70512103      49.75563619
H       48.29864524      48.16226819      49.69362956
H       47.61575712      50.54101336      50.32527184
H       49.35969635      52.22796381      50.74150429
H       51.84011064      51.67336700      50.67794690
H       52.47475528      49.54465546      49.73603094
H       50.80429698      47.72465501      49.38107323
