12
Lattice="100.0 0.0 0.0 0.0 100.0 0.0 0.0 0.0 100.0" Properties=species:S:1:pos:R:3 Energy=-145427.703125 Energy_pyscf=-145422.9094209929 pbc="F F F"
C       49.04632626      48.96279952      49.82399273
C       48.63121183      50.17673722      50.22039896
C       49.59135523      51.21874070      50.58424720
C       50.97987392      50.91243124      50.49293566
C       51.38517005      49.64018738      49.94215352
C       50.43493993      48.67049636      49.69907883
H       48.19336797      48.31175098      49.47306044
H       47.63426093      50.52289923      50.10673335
H       49.19286104      52.25456195      50.77296652
H       51.72518864      51.68162619      50.65075988
H       52.32119699      49.20593131      49.98053103
H       50.69554069      47.72857195      49.27077903
