12
Lattice="100.0 0.0 0.0 0.0 100.0 0.0 0.0 0.0 100.0" Properties=species:S:1:pos:R:3 Energy=-145426.703125 Energy_pyscf=-145423.6046254307 Energy_nn=-145426.671875 pbc="F F F"
C       49.03674497      49.03365772      49.67046480
C       48.62796517      50.26481486      50.15664747
C       49.58460776      51.32134356      50.39878466
C       50.92479844      50.94062405      50.40835910
C       51.33187772      49.67338307      49.83825969
C       50.41602198      48.70305746      49.64709729
H       48.19880770      48.44762417      49.31715822
H       47.58194795      50.49776653      50.07085788
H       49.21971902      52.29665790      50.71354041
H       51.80709532      51.66692505      50.49453742
H       52.38109389      49.51088000      49.70643534
H       50.82364691      47.77542818      49.37775697
