12
Lattice="100.0 0.0 0.0 0.0 100.0 0.0 0.0 0.0 100.0" Properties=species:S:1:pos:R:3 Energy=-145417.546875 Energy_pyscf=-145410.35358687543 Energy_nn=-145418.75 pbc="F F F"
C       48.96282930      49.13578551      49.52047429
C       48.63827965      50.33983310      49.91625678
C       49.48997352      51.38474944      50.28186977
C       50.86561057      51.07292991      50.22527064
C       51.26541832      49.87415098      49.73828984
C       50.34130593      48.79959867      49.47849943
H       48.26286831      48.32354667      49.33927025
H       47.64197717      50.52034262      50.10564790
H       49.08467683      52.25495096      50.68482430
H       51.62101941      51.98538984      50.12211954
H       52.32730394      49.50697647      49.91683358
H       50.73531082      47.84564297      49.39163744
