12
Lattice="100.0 0.0 0.0 0.0 100.0 0.0 0.0 0.0 100.0" Properties=species:S:1:pos:R:3 Energy=-145432.796875 Energy_pyscf=-145432.0059786325 pbc="F F F"
C       49.09886939      48.96337184      49.72600100
C       48.67508127      50.23835385      50.20174811
C       49.70967874      51.19848291      50.39780080
C       51.04896919      50.91315400      50.35628598
C       51.40112261      49.64299372      49.99748891
C       50.47267583      48.71112207      49.60155343
H       48.33269952      48.25822610      49.50608360
H       47.61639031      50.53657705      50.32473538
H       49.43061070      52.22191443      50.67826787
H       51.84692220      51.58801366      50.67895795
H       52.43853783      49.23603091      49.92218382
H       50.78935433      47.71297123      49.31870527
