12
Lattice="100.0 0.0 0.0 0.0 100.0 0.0 0.0 0.0 100.0" Properties=species:S:1:pos:R:3 Energy=-145426.3125 Energy_pyscf=-145426.93607678753 Energy_nn=-145426.015625 pbc="F F F"
C       49.05013573      49.01209816      49.77742111
C       48.65393264      50.31787448      50.18778429
C       49.62316471      51.30821031      50.49726483
C       51.01647428      51.01425707      50.46380728
C       51.45706077      49.64756478      50.10400429
C       50.45162714      48.65571092      49.73838754
H       48.28159007      48.26120998      49.40208019
H       47.56449682      50.60348062      50.23582779
H       49.42476120      52.40576457      50.59306920
H       51.64628576      51.85402168      50.48228668
H       52.49141326      49.48921267      49.93633851
H       50.77741723      47.67966183      49.30601902
