12
Lattice="100.0 0.0 0.0 0.0 100.0 0.0 0.0 0.0 100.0" Properties=species:S:1:pos:R:3 Energy=-145429.765625 Energy_pyscf=-145426.36952720946 pbc="F F F"
C       49.04255725      48.96798216      49.89674730
C       48.58535655      50.19305204      50.32004403
C       49.59008997      51.25095308      50.55972930
C       50.98349789      50.97121345      50.51413495
C       51.39687105      49.63870427      50.12494400
C       50.41136429      48.70438752      49.82878988
H       48.31561310      48.21591013      49.76205320
H       47.48566415      50.39812679      50.31066077
H       49.23297605      52.31311404      50.68390662
H       51.63562799      51.80773772      50.55024751
H       52.42579831      49.29169029      50.03005129
H       50.51924524      47.64446837      49.40420766
