12
Lattice="100.0 0.0 0.0 0.0 100.0 0.0 0.0 0.0 100.0" Properties=species:S:1:pos:R:3 Energy=-145420.375 Energy_pyscf=-145422.7397087421 Energy_nn=-145420.3125 pbc="F F F"
C       49.03526270      49.06426641      49.76501390
C       48.66465319      50.30667025      50.06550921
C       49.58227805      51.33516478      50.45741806
C       50.91365898      50.94807239      50.32850289
C       51.36077329      49.60673855      49.97134868
C       50.39364978      48.65409352      49.63653577
H       48.32561767      48.25273023      49.59857339
H       47.59104880      50.51588361      50.04632607
H       49.17964688      52.29179308      50.75083707
H       51.57646461      51.73982226      50.66447496
H       52.38745103      49.33606144      49.94794807
H       50.50413159      47.71480686      49.00125744
