12
Lattice="100.0 0.0 0.0 0.0 100.0 0.0 0.0 0.0 100.0" Properties=species:S:1:pos:R:3 Energy=-145435.65625 Energy_pyscf=-145434.4614108492 Energy_nn=-145435.1875 pbc="F F F"
C       49.01486334      48.99103669      49.84626688
C       48.58247260      50.30610779      50.18559158
C       49.50478704      51.28189412      50.46689336
C       50.84304878      50.96327655      50.42394161
C       51.33020962      49.69786198      49.98860475
C       50.35382753      48.72016989      49.65087675
H       48.27266661      48.17327174      49.76575936
H       47.48059018      50.44266773      50.32680315
H       49.05299065      52.24185824      50.74043078
H       51.62353659      51.70149333      50.66673733
H       52.40884367      49.49397959      49.91596922
H       50.68749039      47.75948698      49.28792398
