12
Lattice="100.0 0.0 0.0 0.0 100.0 0.0 0.0 0.0 100.0" Properties=species:S:1:pos:R:3 Energy=-145436.125 Energy_pyscf=-145435.21960727466 Energy_nn=-145435.90625 pbc="F F F"
C       49.02163077      49.06838153      49.60392478
C       48.59773697      50.37337628      50.01884730
C       49.53004440      51.32714346      50.31502996
C       50.91261613      51.02555554      50.24706111
C       51.31463670      49.77996741      49.85028691
C       50.38753770      48.79088938      49.54899977
H       48.30559899      48.30360466      49.41718105
H       47.52171167      50.63980582      49.98071539
H       49.14061950      52.24617098      50.70393735
H       51.61353681      51.77507162      50.50660345
H       52.40031493      49.53231449      49.80169068
H       50.71254676      47.77154993      49.28924519
