12
Lattice="100.0 0.0 0.0 0.0 100.0 0.0 0.0 0.0 100.0" Properties=species:S:1:pos:R:3 Energy=-145416.90625 Energy_pyscf=-145411.14167534382 Energy_nn=-145417.65625 pbc="F F F"
C       48.96478891      49.03677135      49.72573886
C       48.58600859      50.34676342      50.10549089
C       49.50080435      51.23772295      50.34306103
C       50.94963393      50.99802441      50.38719249
C       51.37251855      49.70044642      50.05656227
C       50.31052687      48.77415180      49.78453975
H       48.45408930      48.26458132      49.33282414
H       47.51799347      50.57986516      50.36154320
H       49.17077553      52.19183585      50.88977175
H       51.64149076      51.87951295      50.31917409
H       52.38814166      49.45951328      49.79784423
H       50.59491821      47.82130425      49.30473469
