12
Lattice="100.0 0.0 0.0 0.0 100.0 0.0 0.0 0.0 100.0" Properties=species:S:1:pos:R:3 Energy=-145419.1875 Energy_pyscf=-145420.2757331045 Energy_nn=-145420.578125 pbc="F F F"
C       49.11682511      48.98111433      49.63614180
C       48.80670371      50.28562242      50.08540071
C       49.64156784      51.33103408      50.46848174
C       51.08745627      51.00348284      50.38478503
C       51.34464465      49.71069678      49.93849606
C       50.45696402      48.67753181      49.55857080
H       48.42060249      48.22689455      49.35776716
H       47.63724183      50.35805380      50.08582808
H       49.26943098      52.29008893      50.79570318
H       51.86892872      51.70121481      50.64523406
H       52.42404333      49.27370561      49.80875769
H       50.72644795      47.70455013      49.22429842
