12
Lattice="100.0 0.0 0.0 0.0 100.0 0.0 0.0 0.0 100.0" Properties=species:S:1:pos:R:3 Energy=-145416.25 Energy_pyscf=-145417.29524914944 Energy_nn=-145418.109375 pbc="F F F"
C       49.10784225      48.95441648      49.62700165
C       48.73144514      50.33983785      49.99301924
C       49.58676595      51.29893916      50.32553597
C       51.02319932      50.97772008      50.28827588
C       51.32618687      49.70451516      49.90241643
C       50.38653151      48.65372298      49.56104008
H       48.37573217      48.18705183      49.42674966
H       47.67182740      50.60303216      49.96017317
H       49.25761445      52.27469553      50.64997945
H       51.85145142      51.61819503      50.43290273
H       52.25507488      49.22856467      49.60317503
H       50.75907990      47.64557827      49.30689658
