12
Lattice="100.0 0.0 0.0 0.0 100.0 0.0 0.0 0.0 100.0" Properties=species:S:1:pos:R:3 Energy=-145422.390625 Energy_pyscf=-145421.6542100596 Energy_nn=-145422.1875 pbc="F F F"
C       49.06773319      49.12608757      49.70405864
C       48.56466810      50.30700445      50.17710502
C       49.52191135      51.32082064      50.44157607
C       50.89206610      51.00393438      50.27791382
C       51.29977625      49.71717991      49.87373940
C       50.32702632      48.69821188      49.59124697
H       48.30636948      48.41715417      49.38263278
H       47.59805221      50.51530097      50.51724071
H       49.26064848      52.33821857      50.66748656
H       51.47900478      51.91528665      50.49607330
H       52.38410674      49.57075066      49.86549647
H       50.64549326      47.71224412      49.31126520
