12
Lattice="100.0 0.0 0.0 0.0 100.0 0.0 0.0 0.0 100.0" Properties=species:S:1:pos:R:3 Energy=-145429.765625 Energy_pyscf=-145428.85050484908 Energy_nn=-145429.6875 pbc="F F F"
C       49.05066084      49.04075564      49.47844251
C       48.65147447      50.29354512      49.84822035
C       49.60600100      51.25519112      50.18948348
C       50.98255568      50.99694582      50.09209148
C       51.40634624      49.69874366      49.62994264
C       50.43264195      48.74124532      49.45887847
H       48.41157999      48.20110327      49.45505476
H       47.63726000      50.51859942      49.86851172
H       49.40652074      52.26258810      50.59675934
H       51.73642209      51.79831229      50.24965618
H       52.46182580      49.46636133      49.53716341
H       50.69106525      47.73591737      49.35607935
