12
Lattice="100.0 0.0 0.0 0.0 100.0 0.0 0.0 0.0 100.0" Properties=species:S:1:pos:R:3 Energy=-145435.328125 Energy_pyscf=-145434.57202760456 Energy_nn=-145434.953125 pbc="F F F"
C       49.05404522      49.08955981      49.62691008
C       48.61918329      50.38429958      50.01356377
C       49.55333204      51.34167898      50.26673308
C       50.93344509      51.01036353      50.11662310
C       51.36958559      49.71906913      49.75332171
C       50.39684393      48.77910930      49.50879866
H       48.32545990      48.30529646      49.42067822
H       47.59250199      50.53776254      50.20770379
H       49.21618509      52.31525843      50.67864760
H       51.60903628      51.79827944      50.36603684
H       52.43181971      49.46928004      49.74447958
H       50.67984714      47.72818298      49.24999376
