12
Lattice="100.0 0.0 0.0 0.0 100.0 0.0 0.0 0.0 100.0" Properties=species:S:1:pos:R:3 Energy=-145430.203125 Energy_pyscf=-145428.15383630985 pbc="F F F"
C       49.03545106      49.02736797      49.79749076
C       48.60809580      50.24868756      50.20062479
C       49.60866737      51.21277612      50.61864136
C       50.98599516      50.89095825      50.45894224
C       51.31950416      49.63206510      49.99128425
C       50.39663549      48.70706476      49.71244376
H       48.24245314      48.30958801      49.48593798
H       47.54805368      50.50090591      50.11094075
H       49.19177252      52.20666652      50.76509005
H       51.76367191      51.65260371      50.63124008
H       52.39694413      49.20605107      49.94157677
H       50.71464705      47.73422178      49.28309798
