12
Lattice="100.0 0.0 0.0 0.0 100.0 0.0 0.0 0.0 100.0" Properties=species:S:1:pos:R:3 Energy=-145437.65625 Energy_pyscf=-145435.37477332196 Energy_nn=-145435.296875 pbc="F F F"
C       49.00581385      49.00335299      49.81044346
C       48.56991578      50.26072103      50.17460946
C       49.49893688      51.24317414      50.47231891
C       50.88135467      50.97765475      50.40521842
C       51.32156318      49.69433505      49.99334429
C       50.34406134      48.72330445      49.64877277
H       48.24177405      48.17996780      49.78442346
H       47.48397701      50.46703156      50.33131873
H       49.07267061      52.24378964      50.73757110
H       51.60866668      51.72306773      50.66027573
H       52.39223619      49.51400489      49.94585704
H       50.68473898      47.77260362      49.29264596
