12
Lattice="100.0 0.0 0.0 0.0 100.0 0.0 0.0 0.0 100.0" Properties=species:S:1:pos:R:3 Energy=-145433.515625 Energy_pyscf=-145433.8591481489 Energy_nn=-145434.03125 pbc="F F F"
C       49.11068846      48.92962506      49.76911215
C       48.68602688      50.21491418      50.20636647
C       49.63589984      51.16726255      50.47216757
C       50.98686206      50.88793620      50.36977141
C       51.39166791      49.62962978      49.93327236
C       50.43457831      48.62484824      49.66133777
H       48.40308283      48.07059071      49.50124102
H       47.60203077      50.46600374      50.28928749
H       49.34685221      52.21818711      50.81456023
H       51.74778694      51.66583374      50.48036981
H       52.47797972      49.38903354      49.78973641
H       50.76781326      47.72274241      49.23979610
