12
Lattice="100.0 0.0 0.0 0.0 100.0 0.0 0.0 0.0 100.0" Properties=species:S:1:pos:R:3 Energy=-145432.109375 Energy_pyscf=-145432.44134857703 Energy_nn=-145431.984375 pbc="F F F"
C       49.01827874      49.09222376      49.71530710
C       48.60519785      50.31506652      50.22099983
C       49.52632734      51.30111756      50.48157694
C       50.89009604      50.98722970      50.33038304
C       51.36872001      49.71416214      49.97767724
C       50.35690373      48.77785868      49.68477231
H       48.36365349      48.32431674      49.36037516
H       47.54191397      50.44684490      50.36795052
H       49.11975214      52.30434050      50.70597273
H       51.64587993      51.81171446      50.42720084
H       52.45278898      49.45439746      49.87996005
H       50.56975662      47.73399830      49.30605652
