12
Lattice="100.0 0.0 0.0 0.0 100.0 0.0 0.0 0.0 100.0" Properties=species:S:1:pos:R:3 Energy=-145419.78125 Energy_pyscf=-145418.11419608706 Energy_nn=-145420.5625 pbc="F F F"
C       49.05215695      49.10956453      49.58910012
C       48.52197722      50.36257578      49.93081052
C       49.50709763      51.36206872      50.26047720
C       50.84459607      51.08261065      50.16762099
C       51.35723004      49.74610209      49.82950222
C       50.36674948      48.85541579      49.48141486
H       48.36734104      48.38090350      49.32722412
H       47.47289409      50.54093201      49.99832273
H       49.11964326      52.29766399      50.78880693
H       51.62609968      51.94442839      50.07736794
H       52.39925035      49.63768262      49.86779918
H       50.61149785      47.76154986      49.37052243
