12
Lattice="100.0 0.0 0.0 0.0 100.0 0.0 0.0 0.0 100.0" Properties=species:S:1:pos:R:3 Energy=-145421.65625 Energy_pyscf=-145418.7998804614 Energy_nn=-145421.671875 pbc="F F F"
C       49.02595251      48.96052615      49.66695437
C       48.69537063      50.26401661      50.21390106
C       49.57283867      51.28611380      50.40279415
C       50.97433608      51.00854364      50.24536843
C       51.30080831      49.71063196      49.80370032
C       50.40600204      48.72572680      49.59658411
H       48.17919777      48.45152066      49.40973581
H       47.59190034      50.52365691      50.08714308
H       49.20232384      52.29075351      50.62507825
H       51.77354315      51.65338926      50.68626605
H       52.33299569      49.45625869      49.74579968
H       50.82400559      47.78829482      49.32384625
