12
Lattice="100.0 0.0 0.0 0.0 100.0 0.0 0.0 0.0 100.0" Properties=species:S:1:pos:R:3 Energy=-145426.46875 Energy_pyscf=-145428.20697885062 Energy_nn=-145426.4375 pbc="F F F"
C       49.06913426      48.96288652      49.72453484
C       48.69682641      50.29231849      50.14420735
C       49.63756672      51.22811727      50.50840594
C       50.97264326      50.89993299      50.42811448
C       51.33268642      49.67951187      49.99825846
C       50.44798579      48.71887430      49.62123448
H       48.19199634      48.34290187      49.48702875
H       47.61597065      50.52068691      50.15199508
H       49.39989279      52.29232865      50.74974120
H       51.75344675      51.71624291      50.37829498
H       52.41574088      49.49853048      49.79453369
H       50.79183620      47.73983024      49.21381621
