12
Lattice="100.0 0.0 0.0 0.0 100.0 0.0 0.0 0.0 100.0" Properties=species:S:1:pos:R:3 Energy=-145438.25 Energy_pyscf=-145436.44546664064 Energy_nn=-145436.90625 pbc="F F F"
C       49.12844511      49.00333814      49.63272227
C       48.71609955      50.28978401      50.04891572
C       49.65896405      51.26878059      50.43600451
C       51.02462399      50.94429966      50.32688363
C       51.42320553      49.67217504      49.91809617
C       50.53000147      48.69432528      49.53636622
H       48.36783076      48.22483428      49.38587478
H       47.63723751      50.44954071      50.17129551
H       49.33511500      52.25573581      50.77071092
H       51.76647189      51.69236247      50.69364691
H       52.47635593      49.37122935      49.82416858
H       50.76035937      47.65232749      49.23855495
