12
Lattice="100.0 0.0 0.0 0.0 100.0 0.0 0.0 0.0 100.0" Properties=species:S:1:pos:R:3 Energy=-145436.765625 Energy_pyscf=-145436.38133844704 Energy_nn=-145435.828125 pbc="F F F"
C       49.05047792      48.95413253      49.67987083
C       48.66636514      50.27489376      49.99796543
C       49.61400003      51.26123574      50.36680366
C       51.00336328      50.93054230      50.29414674
C       51.38591556      49.64411141      49.85978541
C       50.43722199      48.63181126      49.59361024
H       48.28122629      48.25929099      49.37996009
H       47.60198886      50.61076295      49.95054197
H       49.33742621      52.28637277      50.61395455
H       51.78145161      51.65791914      50.43837393
H       52.45274152      49.36458352      49.65778183
H       50.71975623      47.61359459      49.27597699
