9
Lattice="100.0 0.0 0.0 0.0 100.0 0.0 0.0 0.0 100.0" Properties=species:S:1:pos:R:3 Energy=-97064.890625 Energy_pyscf=-97063.01510003202 pbc="F F F"
C       50.10295330      50.21047800      50.23680607
C       49.64608540      49.71461563      48.71805135
O       51.09183985      49.34648557      50.83385156
H       50.63466780      51.22533833      50.22132206
H       49.27441576      50.26595560      50.97054401
H       49.18643702      50.49517585      48.23130653
H       50.39906855      49.32767341      48.08815177
H       48.99862161      48.99752172      49.09912302
H       50.69964054      48.81410223      51.70179298
