9
Lattice="100.0 0.0 0.0 0.0 100.0 0.0 0.0 0.0 100.0" Properties=species:S:1:pos:R:3 Energy=-97080.46875 Energy_pyscf=-97080.25328006005 pbc="F F F"
C       49.75316335      50.24278930      50.65583093
C       49.27155889      49.79769371      49.26449118
O       50.64681167      49.45583549      51.47003045
H       50.28085451      51.27788238      50.55774167
H       48.75228815      50.30438080      51.13061590
H       48.61079252      48.85251337      49.35250872
H       48.56910684      50.60973522      49.02371621
H       50.05112281      49.59434973      48.51609229
H       51.43727860      49.26886141      50.97466018
