9
Lattice="100.0 0.0 0.0 0.0 100.0 0.0 0.0 0.0 100.0" Properties=species:S:1:pos:R:3 Energy=-97079.78125 Energy_pyscf=-97078.1293509977 pbc="F F F"
C       49.88424607      50.10874580      50.83501162
C       49.38171858      49.73343659      49.45242788
O       50.83107267      49.15969684      51.45039691
H       50.26341918      51.16003327      50.77535630
H       49.10780617      50.27434860      51.58896566
H       48.39590466      50.07378054      49.09923789
H       50.12794776      49.98381079      48.68406320
H       49.18425304      48.56785479      49.22743929
H       51.62573368      49.27760222      50.81374798
