9
Lattice="100.0 0.0 0.0 0.0 100.0 0.0 0.0 0.0 100.0" Properties=species:S:1:pos:R:3 Energy=-97076.96875 Energy_pyscf=-97076.32351093665 pbc="F F F"
C       49.91599897      50.22043120      50.60158087
C       49.47774648      49.67155234      49.29719867
O       50.66780780      49.18807003      51.12448010
H       50.28658981      51.27121219      50.67624107
H       48.99823417      50.23366972      51.31193199
H       48.69123881      50.18789664      48.72569028
H       50.50333915      49.56581963      48.70366015
H       49.06963522      48.66411671      49.51115501
H       51.19880875      48.87841082      50.39197466
