9
Lattice="100.0 0.0 0.0 0.0 100.0 0.0 0.0 0.0 100.0" Properties=species:S:1:pos:R:3 Energy=-97069.6640625 Energy_pyscf=-97067.09452058414 pbc="F F F"
C       49.77026388      50.23347512      50.81514430
C       49.33814608      49.82676029      49.37560950
O       50.84745713      49.28724614      51.39087204
H       50.11294699      51.25328406      50.63829135
H       48.90191187      50.42151346      51.50589839
H       49.00227835      48.76220538      49.30287411
H       48.39033832      50.53368636      49.22321441
H       49.82585693      50.10462062      48.54704948
H       51.59602163      49.86433195      51.53587440
