9
Lattice="100.0 0.0 0.0 0.0 100.0 0.0 0.0 0.0 100.0" Properties=species:S:1:pos:R:3 Energy=-97068.0234375 Energy_pyscf=-97068.15897443773 pbc="F F F"
C       50.08540819      50.12130338      50.25315775
C       49.63483744      49.67769336      48.76339275
O       50.91598965      49.21841516      50.86981764
H       50.60410738      51.07622369      49.91922471
H       49.32694400      50.27469400      51.10360176
H       49.10124543      48.74465511      48.83641489
H       49.06033435      50.61230396      48.49750555
H       50.46736630      49.67636730      48.18488136
H       50.69001019      49.26162697      51.80065332
