9
Lattice="100.0 0.0 0.0 0.0 100.0 0.0 0.0 0.0 100.0" Properties=species:S:1:pos:R:3 Energy=-97073.2890625 Energy_pyscf=-97073.23908833248 pbc="F F F"
C       49.82464649      50.30510456      50.77006950
C       49.43016879      49.74627456      49.41387127
O       50.61245606      49.24657765      51.50454944
H       50.43640567      51.23623877      50.49950003
H       49.08909079      50.74895393      51.51046026
H       48.33224141      49.85286876      49.27190820
H       49.73872657      50.45799650      48.62383082
H       49.69262766      48.68931187      49.42329550
H       51.50536871      49.41813305      51.26600102
