9
Lattice="100.0 0.0 0.0 0.0 100.0 0.0 0.0 0.0 100.0" Properties=species:S:1:pos:R:3 Energy=-97070.5859375 Energy_pyscf=-97073.72694365252 pbc="F F F"
C       50.29513998      50.49596321      50.71939153
C       49.87343206      50.01147003      49.39187122
O       51.28506603      49.59411879      51.32964578
H       50.82028114      51.46698269      50.65705115
H       49.49763834      50.82107532      51.45974480
H       48.90622612      50.41922263      49.12795592
H       50.56963875      50.09776950      48.62123212
H       49.81858889      48.97744147      49.41432638
H       51.09684301      48.61397015      51.00215056
