9
Lattice="100.0 0.0 0.0 0.0 100.0 0.0 0.0 0.0 100.0" Properties=species:S:1:pos:R:3 Energy=-97070.1484375 Energy_pyscf=-97064.85239566509 pbc="F F F"
C       50.14661965      50.29984146      50.20062645
C       49.69454512      49.86778661      48.76362389
O       50.96862720      49.25431742      50.76947332
H       50.63754986      51.24411818      50.03340821
H       49.36060984      50.63168234      51.03359437
H       49.03471000      50.40894804      48.27841556
H       50.62586456      49.49762794      48.27434072
H       49.03695983      48.93299648      48.92560925
H       50.96737587      49.59576866      51.61599663
