9
Lattice="100.0 0.0 0.0 0.0 100.0 0.0 0.0 0.0 100.0" Properties=species:S:1:pos:R:3 Energy=-97073.25 Energy_pyscf=-97069.71825085342 pbc="F F F"
C       50.07006454      50.24763190      50.19123021
C       49.67818441      49.71030710      48.81650411
O       50.95515962      49.17011293      50.82942296
H       50.56566135      51.17058259      50.20250074
H       49.17090125      50.22215882      50.93984137
H       49.08646392      48.89580937      49.14144618
H       48.91256659      50.36429841      48.32856007
H       50.44537443      49.33143435      48.13225050
H       51.09680626      49.11865944      51.82695536
