9
Lattice="100.0 0.0 0.0 0.0 100.0 0.0 0.0 0.0 100.0" Properties=species:S:1:pos:R:3 Energy=-97077.09375 Energy_pyscf=-97076.80217185139 pbc="F F F"
C       50.13628822      50.36199913      50.78806400
C       49.69575237      49.88425269      49.33843962
O       51.12807432      49.50912290      51.24738699
H       50.63533877      51.27765916      50.81885087
H       49.23297553      50.46661498      51.50067438
H       49.03595487      50.60994985      48.93170935
H       50.38653638      49.62858746      48.55366807
H       49.11379273      49.01496956      49.54073109
H       50.74637987      48.66156486      51.08118804
