9
Lattice="100.0 0.0 0.0 0.0 100.0 0.0 0.0 0.0 100.0" Properties=species:S:1:pos:R:3 Energy=-97073.4921875 Energy_pyscf=-97069.04131917922 pbc="F F F"
C       49.68438567      50.19916464      50.71448259
C       49.26687452      49.73214705      49.28766395
O       50.69080549      49.28921275      51.40977578
H       50.26395948      51.18623616      50.61994359
H       48.86437612      50.28632539      51.32867048
H       48.34244320      48.92230981      49.22438301
H       48.79162365      50.61535079      48.84042656
H       49.94257540      49.54633621      48.40707434
H       51.54577955      49.61679332      51.11494861
