9
Lattice="100.0 0.0 0.0 0.0 100.0 0.0 0.0 0.0 100.0" Properties=species:S:1:pos:R:3 Energy=-97074.078125 Energy_pyscf=-97068.2078875397 pbc="F F F"
C       50.28572875      50.46201875      50.74677436
C       49.78265773      49.94521235      49.33637534
O       50.75307256      49.41302410      51.55759241
H       51.01117547      51.18084027      50.35565174
H       49.72265015      51.03864629      51.56651842
H       48.72770111      50.29248088      49.06640675
H       50.51838048      50.52463097      48.66706148
H       50.00215602      48.88138910      49.37509393
H       51.35869983      48.75929118      51.08995214
