9
Lattice="100.0 0.0 0.0 0.0 100.0 0.0 0.0 0.0 100.0" Properties=species:S:1:pos:R:3 Energy=-97080.0703125 Energy_pyscf=-97079.95501640473 pbc="F F F"
C       50.21478999      50.31878585      50.27005640
C       49.67851809      49.83965778      48.90108930
O       51.06252603      49.28006275      50.84978653
H       50.86453430      51.15847777      50.17219514
H       49.39308904      50.41884421      50.90211466
H       49.20456486      50.63735327      48.40431722
H       50.46586912      49.50039811      48.25891413
H       48.90678155      49.01981630      49.04203125
H       50.63783844      49.01519304      51.64045953
