9
Lattice="100.0 0.0 0.0 0.0 100.0 0.0 0.0 0.0 100.0" Properties=species:S:1:pos:R:3 Energy=-97077.203125 Energy_pyscf=-97074.19009949021 pbc="F F F"
C       50.12898937      50.36268395      50.77444907
C       49.70322803      49.89198402      49.30008944
O       51.16072127      49.45816684      51.37341830
H       50.52204692      51.37282598      50.83386320
H       49.36952003      50.38949494      51.48526789
H       48.97746014      50.69824711      48.79499102
H       50.40888340      49.51483228      48.56869435
H       48.99917804      49.08232080      49.50851138
H       50.90159487      48.55655986      51.11208030
