9
Lattice="100.0 0.0 0.0 0.0 100.0 0.0 0.0 0.0 100.0" Properties=species:S:1:pos:R:3 Energy=-97082.1171875 Energy_pyscf=-97081.54810306922 pbc="F F F"
C       50.14111009      50.57743736      50.69429864
C       49.63109575      50.07074939      49.35049573
O       50.91827876      49.59069578      51.37387794
H       50.79288856      51.41150203      50.57487668
H       49.23903921      50.94045323      51.23099980
H       48.99711391      50.82226943      48.78700394
H       50.47264081      49.72424209      48.83291095
H       49.05022548      49.09310401      49.38636416
H       50.72732077      48.66861973      51.09237327
