9
Lattice="100.0 0.0 0.0 0.0 100.0 0.0 0.0 0.0 100.0" Properties=species:S:1:pos:R:3 Energy=-97069.1796875 Energy_pyscf=-97064.79018742687 pbc="F F F"
C       49.82300672      50.30017541      50.73923985
C       49.29686797      49.70152621      49.42243551
O       50.74356471      49.21760925      51.28206556
H       50.36154979      51.34979260      50.67586664
H       49.15447383      50.34154947      51.55263203
H       48.43716592      50.24869360      49.06714679
H       49.95618708      50.06825913      48.66221649
H       49.30501366      48.72406933      49.62741439
H       51.57613450      49.74111163      51.25383183
