9
Lattice="100.0 0.0 0.0 0.0 100.0 0.0 0.0 0.0 100.0" Properties=species:S:1:pos:R:3 Energy=-97075.78125 Energy_pyscf=-97073.33972841188 pbc="F F F"
C       50.10914299      50.32966321      50.71002615
C       49.65663816      49.88583111      49.30757104
O       51.09057213      49.42352418      51.25750126
H       50.60354901      51.24223812      50.49433513
H       49.17794840      50.63346653      51.37715668
H       49.12058201      50.87490683      49.04593672
H       50.46889414      49.76027190      48.65159395
H       49.04211107      48.90216477      49.24729992
H       50.82142263      48.62488832      50.91154116
