9
Lattice="100.0 0.0 0.0 0.0 100.0 0.0 0.0 0.0 100.0" Properties=species:S:1:pos:R:3 Energy=-97069.5859375 Energy_pyscf=-97069.94898184734 pbc="F F F"
C       49.96304345      50.23599642      50.79841785
C       49.36672745      49.70196532      49.37708029
O       50.89160862      49.20703312      51.32159137
H       50.14222065      51.32974463      51.02455880
H       49.07470595      49.98003935      51.38242931
H       48.42721735      50.33211458      49.18481928
H       50.17615989      49.64752066      48.62179919
H       49.09973465      48.60308308      49.38829991
H       51.68007620      49.31717463      50.85215322
