9
Lattice="100.0 0.0 0.0 0.0 100.0 0.0 0.0 0.0 100.0" Properties=species:S:1:pos:R:3 Energy=-97081.8125 Energy_pyscf=-97078.99382168027 pbc="F F F"
C       49.90036817      50.35745185      50.43262819
C       49.47312068      49.78216829      49.07283703
O       50.83132797      49.42213226      51.01482351
H       50.34658828      51.34295574      50.24856184
H       49.03836792      50.60924218      51.21983313
H       48.99408371      48.75760929      49.23350507
H       48.71763890      50.50884135      48.77401550
H       50.19260149      49.82035811      48.28851012
H       51.18303454      49.61089985      51.85613884
