9
Lattice="100.0 0.0 0.0 0.0 100.0 0.0 0.0 0.0 100.0" Properties=species:S:1:pos:R:3 Energy=-97075.0546875 Energy_pyscf=-97072.44477107389 pbc="F F F"
C       50.22921502      50.33730020      50.37055103
C       49.68618961      49.75919497      49.05215972
O       51.19962394      49.34989146      50.83593343
H       50.62273639      51.43226988      50.24508550
H       49.27768183      50.39703710      50.96256679
H       48.77458399      50.27476096      48.74594932
H       50.40653179      50.02448820      48.25909118
H       49.89652738      48.67863294      48.87799913
H       51.03832244      49.21402146      51.82067731
