9
Lattice="100.0 0.0 0.0 0.0 100.0 0.0 0.0 0.0 100.0" Properties=species:S:1:pos:R:3 Energy=-97079.3984375 Energy_pyscf=-97078.55350644313 pbc="F F F"
C       49.94297575      50.34389307      50.47261541
C       49.48954440      49.82592786      49.08322137
O       50.65434207      49.24771208      51.07516233
H       50.39755393      51.34886952      50.31610694
H       49.03244459      50.64105956      50.99823646
H       49.16480288      48.77420686      49.29953678
H       48.64082795      50.46119851      48.89509234
H       50.14596451      49.84674858      48.18352716
H       51.24165062      49.67902717      51.80420139
