9
Lattice="100.0 0.0 0.0 0.0 100.0 0.0 0.0 0.0 100.0" Properties=species:S:1:pos:R:3 Energy=-97081.3515625 Energy_pyscf=-97079.27888843353 pbc="F F F"
C       50.31150496      50.38286596      50.59766881
C       49.66896730      50.01398911      49.25778498
O       51.17835330      49.32118012      51.09873937
H       50.89552947      51.29315734      50.78076351
H       49.47211009      50.47699978      51.31213260
H       50.37666876      50.10520729      48.33857082
H       49.49722197      48.89215104      49.31468664
H       48.69833496      50.44161324      49.20313131
H       50.66788896      48.57412596      51.49097611
