9
Lattice="100.0 0.0 0.0 0.0 100.0 0.0 0.0 0.0 100.0" Properties=species:S:1:pos:R:3 Energy=-97073.9765625 Energy_pyscf=-97071.00806160795 pbc="F F F"
C       50.08543557      50.36906603      50.75704078
C       49.65526394      49.93717460      49.32954209
O       51.12684893      49.37644451      51.43443406
H       50.61144690      51.38542972      50.75796199
H       49.26038099      50.41160039      51.40977337
H       48.99124605      50.65363909      48.74144795
H       50.36558151      49.67094616      48.58878016
H       49.03828385      49.08122168      49.62367782
H       50.99726504      48.47621916      51.15850527
