9
Lattice="100.0 0.0 0.0 0.0 100.0 0.0 0.0 0.0 100.0" Properties=species:S:1:pos:R:3 Energy=-97074.7734375 Energy_pyscf=-97074.33059277388 pbc="F F F"
C       49.81866518      50.31376268      50.85856342
C       49.32405949      49.88467989      49.40722098
O       50.80337404      49.42219917      51.37196676
H       50.39645988      51.27608999      50.85864938
H       48.93783614      50.23538965      51.50476345
H       48.40419611      50.20319290      48.96918491
H       50.14525583      49.87445854      48.74829372
H       49.21269294      48.80625816      49.75300751
H       51.59697798      49.69233187      50.81883447
