9
Lattice="100.0 0.0 0.0 0.0 100.0 0.0 0.0 0.0 100.0" Properties=species:S:1:pos:R:3 Energy=-97081.0546875 Energy_pyscf=-97081.05627496369 pbc="F F F"
C       49.64929756      50.27766903      50.70692003
C       49.23691372      49.78958773      49.30983697
O       50.61278549      49.33403219      51.31721340
H       50.14905843      51.23534068      50.42891019
H       48.79551179      50.40189841      51.44136505
H       48.62026216      48.84465246      49.27635926
H       48.69673360      50.59408971      48.87013190
H       50.11761019      49.61525693      48.62636148
H       51.47940955      49.30868162      50.93774678
