9
Lattice="100.0 0.0 0.0 0.0 100.0 0.0 0.0 0.0 100.0" Properties=species:S:1:pos:R:3 Energy=-97076.5078125 Energy_pyscf=-97074.95364614105 pbc="F F F"
C       50.28450534      50.35273299      50.29352705
C       49.65323725      49.93932909      48.98341546
O       51.12301760      49.40721562      50.90771423
H       50.94496179      51.23444427      50.37386974
H       49.41978539      50.72292607      50.90649750
H       49.33014455      50.74640157      48.43416812
H       50.57652145      49.52257864      48.39301442
H       48.94719581      49.15624134      49.18139009
H       50.57470610      48.92270481      51.47100777
