9
Lattice="100.0 0.0 0.0 0.0 100.0 0.0 0.0 0.0 100.0" Properties=species:S:1:pos:R:3 Energy=-97072.3046875 Energy_pyscf=-97068.84534468906 pbc="F F F"
C       50.25378580      50.35460713      50.72419765
C       49.78882317      49.90860138      49.34567907
O       51.05510577      49.35459985      51.25830950
H       50.74773004      51.22681631      50.64890616
H       49.31904226      50.72045728      51.32955883
H       50.53531127      49.84001951      48.63756514
H       49.35881233      48.86913792      49.53663728
H       48.89466874      50.56378449      49.19897505
H       50.85203787      48.68016369      50.65989833
