9
Lattice="100.0 0.0 0.0 0.0 100.0 0.0 0.0 0.0 100.0" Properties=species:S:1:pos:R:3 Energy=-97073.9140625 Energy_pyscf=-97073.27795310394 pbc="F F F"
C       49.84246165      50.30021203      50.26005973
C       49.42504730      49.71115054      48.84048036
O       50.71934761      49.20512538      50.86033938
H       50.30683566      51.29239698      50.05706376
H       48.94817115      50.37149276      51.07777162
H       48.90409851      50.54341430      48.38746852
H       50.49853891      49.46561478      48.37125749
H       48.82387075      48.79432779      48.96987997
H       51.21745583      49.57139370      51.62912997
