9
Lattice="100.0 0.0 0.0 0.0 100.0 0.0 0.0 0.0 100.0" Properties=species:S:1:pos:R:3 Energy=-97075.40625 Energy_pyscf=-97074.91156926175 pbc="F F F"
C       50.25835877      50.43176923      50.71497724
C       49.69417240      49.98460628      49.34647418
O       51.22817585      49.47914400      51.17393136
H       50.87400307      51.23285085      50.57318339
H       49.39119320      50.50702010      51.44244025
H       48.82916432      50.44644213      49.05530099
H       50.53292813      50.12544465      48.62905869
H       49.48327638      48.93647706      49.45958480
H       50.59701465      48.68341026      51.27135095
