9
Lattice="100.0 0.0 0.0 0.0 100.0 0.0 0.0 0.0 100.0" Properties=species:S:1:pos:R:3 Energy=-97076.3671875 Energy_pyscf=-97075.02383952613 pbc="F F F"
C       49.87126150      50.26015736      50.78058702
C       49.40684237      49.79721540      49.48080342
O       50.72376743      49.37730040      51.54765322
H       50.21213678      51.22828708      50.48008112
H       49.06716040      50.51553574      51.53681246
H       48.37219420      50.10697068      49.20349416
H       49.93781896      50.22064608      48.68799634
H       49.43812116      48.71724541      49.44051422
H       51.63976140      49.46310885      51.16809664
