9
Lattice="100.0 0.0 0.0 0.0 100.0 0.0 0.0 0.0 100.0" Properties=species:S:1:pos:R:3 Energy=-97073.7734375 Energy_pyscf=-97068.49348148024 pbc="F F F"
C       49.71668185      50.12234047      50.68351093
C       49.24537101      49.73739126      49.30443153
O       50.61547191      49.23772638      51.44575241
H       50.30522713      51.16307394      50.62792227
H       48.83628107      50.48921492      51.22362902
H       48.55895954      48.80127584      49.19890345
H       48.73719047      50.62023189      48.92661401
H       49.82426564      49.64284958      48.40446950
H       51.54304836      49.58062671      51.09946014
