9
Lattice="100.0 0.0 0.0 0.0 100.0 0.0 0.0 0.0 100.0" Properties=species:S:1:pos:R:3 Energy=-97068.0390625 Energy_pyscf=-97063.29250110651 pbc="F F F"
C       49.90553419      50.34865724      50.85409865
C       49.32338095      49.73358007      49.42201291
O       50.70697414      49.27640842      51.43754740
H       50.43479227      51.40893309      50.54573952
H       48.96825030      50.59329589      51.42817234
H       48.25140686      49.85024019      49.11981518
H       49.91200676      50.43623878      48.72981614
H       49.54234197      48.71970805      49.57872563
H       51.64062130      49.32726267      51.18370918
