9
Lattice="100.0 0.0 0.0 0.0 100.0 0.0 0.0 0.0 100.0" Properties=species:S:1:pos:R:3 Energy=-97071.59375 Energy_pyscf=-97072.2196494185 pbc="F F F"
C       50.15178763      50.47385178      50.71277835
C       49.74462809      49.90358848      49.35976887
O       51.16025237      49.43864857      51.20201531
H       50.90037869      51.28639263      50.60046588
H       49.31342689      50.72072443      51.50530594
H       48.81210040      50.55659986      48.99898614
H       50.48446931      50.11692412      48.54230248
H       49.54026469      48.82235453      49.56076182
H       50.74131047      48.52058348      51.13871611
