9
Lattice="100.0 0.0 0.0 0.0 100.0 0.0 0.0 0.0 100.0" Properties=species:S:1:pos:R:3 Energy=-97079.6875 Energy_pyscf=-97079.09690853144 pbc="F F F"
C       49.88372738      50.24220031      50.76404189
C       49.26325433      49.75615726      49.39400442
O       50.75076669      49.31373043      51.43551368
H       50.39533235      51.22964092      50.64194742
H       49.15927142      50.51776795      51.51306036
H       48.22742381      50.08130763      49.09051214
H       49.91994840      50.21391848      48.61914557
H       49.39940277      48.69970867      49.46144488
H       51.65236961      49.62538623      51.36707121
