9
Lattice="100.0 0.0 0.0 0.0 100.0 0.0 0.0 0.0 100.0" Properties=species:S:1:pos:R:3 Energy=-97081.3828125 Energy_pyscf=-97079.6985400517 pbc="F F F"
C       50.13365710      50.28810472      50.80716182
C       49.71465758      49.84773687      49.32042850
O       51.17756695      49.47190333      51.21965639
H       50.59001828      51.31566362      50.72963293
H       49.32971280      50.34416447      51.49669136
H       48.91686799      50.52501289      48.99526105
H       50.66241541      49.71238473      48.77434240
H       49.27080217      48.82148300      49.36479564
H       50.93762085      48.60707268      51.08285074
