9
Lattice="100.0 0.0 0.0 0.0 100.0 0.0 0.0 0.0 100.0" Properties=species:S:1:pos:R:3 Energy=-97076.671875 Energy_pyscf=-97076.27518811186 pbc="F F F"
C       50.17570082      50.43547767      50.65513369
C       49.70376282      50.03046823      49.25850252
O       50.87866887      49.40842794      51.41596003
H       50.94337446      51.20170610      50.29054045
H       49.34561654      50.75750893      51.27715146
H       48.92450552      49.12850712      49.35714689
H       49.02106706      50.82031778      49.00909929
H       50.46253544      49.88839599      48.47337876
H       51.13080973      48.68135967      50.77935723
