9
Lattice="100.0 0.0 0.0 0.0 100.0 0.0 0.0 0.0 100.0" Properties=species:S:1:pos:R:3 Energy=-97075.453125 Energy_pyscf=-97072.56911737761 pbc="F F F"
C       50.09951754      50.28351649      50.65960049
C       49.66196054      49.91060615      49.28170780
O       51.13768693      49.46443176      51.31576922
H       50.60640420      51.37300055      50.52731589
H       49.21726350      50.39472744      51.27468593
H       49.09641963      50.82805393      49.19336551
H       50.45206622      49.71860143      48.45804510
H       48.99385058      49.08395463      49.22904781
H       50.78099354      48.62378926      51.09310247
