9
Lattice="100.0 0.0 0.0 0.0 100.0 0.0 0.0 0.0 100.0" Properties=species:S:1:pos:R:3 Energy=-97074.640625 Energy_pyscf=-97068.77952729925 pbc="F F F"
C       49.88748598      50.31291122      50.69443443
C       49.31041066      49.69360126      49.37817977
O       50.78023403      49.38120941      51.24674067
H       50.47395970      51.23302403      50.86586100
H       48.99407712      50.45872984      51.41162872
H       48.36455063      50.25860170      49.23453683
H       49.90110756      50.10215033      48.57160939
H       49.30030296      48.53958021      49.53496113
H       51.62843929      49.72178019      51.36027962
