9
Lattice="100.0 0.0 0.0 0.0 100.0 0.0 0.0 0.0 100.0" Properties=species:S:1:pos:R:3 Energy=-97077.9453125 Energy_pyscf=-97076.97946173507 pbc="F F F"
C       50.12127600      50.34908977      50.66684781
C       49.81645353      49.83378089      49.33915106
O       51.12128679      49.41864167      51.20219714
H       50.71473161      51.36817246      50.80652094
H       49.27971379      50.26096621      51.36224935
H       49.51907359      48.80294188      49.45122956
H       49.00791324      50.41644707      48.87375790
H       50.68256524      49.85161960      48.66656250
H       51.02423447      48.56969875      50.63817231
