9
Lattice="100.0 0.0 0.0 0.0 100.0 0.0 0.0 0.0 100.0" Properties=species:S:1:pos:R:3 Energy=-97077.28125 Energy_pyscf=-97077.2281326032 pbc="F F F"
C       50.13575447      50.29885635      50.83340188
C       49.69184054      49.91173041      49.40942185
O       51.12393720      49.49727573      51.40333817
H       50.58784045      51.34047125      50.66144402
H       49.25704751      50.48275542      51.40088305
H       48.99390247      50.68857928      49.08311526
H       50.42790725      49.55520069      48.62125522
H       49.07538088      49.02263733      49.38045642
H       50.79465596      48.63809417      51.01219634
