9
Lattice="100.0 0.0 0.0 0.0 100.0 0.0 0.0 0.0 100.0" Properties=species:S:1:pos:R:3 Energy=-97074.640625 Energy_pyscf=-97071.3278975803 pbc="F F F"
C       50.10193908      50.15200469      50.62160774
C       49.43262127      49.79168792      49.24083870
O       50.81192128      49.11734955      51.34783439
H       50.66356545      51.16767403      50.60819228
H       49.22606335      50.40074183      51.37271368
H       48.37459524      49.97856444      49.10703592
H       50.06856298      50.40950424      48.60626404
H       49.52011990      48.70636153      49.00778529
H       51.55231765      48.64699573      51.01129754
