9
Lattice="100.0 0.0 0.0 0.0 100.0 0.0 0.0 0.0 100.0" Properties=species:S:1:pos:R:3 Energy=-97079.3828125 Energy_pyscf=-97076.7424936367 pbc="F F F"
C       50.32027816      50.40109130      50.75380102
C       49.66425339      49.90062772      49.32596195
O       51.11620347      49.37039823      51.31067404
H       50.79622289      51.37911670      50.70404304
H       49.43033269      50.58467770      51.42048001
H       50.47745249      49.87732377      48.68990959
H       49.13892192      48.90516853      49.37507612
H       48.88325139      50.52566183      48.92647631
H       50.98969742      48.55607094      50.84296275
