9
Lattice="100.0 0.0 0.0 0.0 100.0 0.0 0.0 0.0 100.0" Properties=species:S:1:pos:R:3 Energy=-97076.953125 Energy_pyscf=-97076.62501873057 pbc="F F F"
C       50.09197070      50.32310362      50.19175860
C       49.72308622      49.75461341      48.86813406
O       50.96405517      49.33094310      50.76225918
H       50.58839991      51.28299988      50.00110037
H       49.26829796      50.55543673      50.89049735
H       49.06282071      50.64788280      48.31513708
H       50.66858368      49.36994439      48.34144052
H       48.92540474      48.87772240      48.82181846
H       51.15369196      49.59727652      51.69434817
