9
Lattice="100.0 0.0 0.0 0.0 100.0 0.0 0.0 0.0 100.0" Properties=species:S:1:pos:R:3 Energy=-97071.125 Energy_pyscf=-97069.16631151535 pbc="F F F"
C       50.30593615      50.25257065      50.58218634
C       49.65376861      49.83520192      49.25086550
O       51.46091642      49.41200398      51.03263747
H       50.51523228      51.32214476      50.57161048
H       49.35626847      50.27453664      51.39261523
H       49.51113149      50.69951539      48.58050475
H       50.40335375      49.27786524      48.59276862
H       48.86835456      49.20921796      49.39123937
H       50.99062436      48.49146055      51.08853436
