9
Lattice="100.0 0.0 0.0 0.0 100.0 0.0 0.0 0.0 100.0" Properties=species:S:1:pos:R:3 Energy=-97078.046875 Energy_pyscf=-97077.69611971224 pbc="F F F"
C       49.88580400      50.16863136      50.92030701
C       49.44314007      49.73453479      49.42552719
O       50.87471807      49.19552641      51.40850762
H       50.28486095      51.13071407      50.89947859
H       48.96211318      50.13345782      51.45120681
H       48.48107085      50.16196974      49.16849868
H       50.10529089      49.85060245      48.51921520
H       49.26353867      48.65001642      49.44868655
H       51.51875732      49.32776290      50.70449980
