9
Lattice="100.0 0.0 0.0 0.0 100.0 0.0 0.0 0.0 100.0" Properties=species:S:1:pos:R:3 Energy=-97075.2578125 Energy_pyscf=-97072.91401513979 pbc="F F F"
C       50.19073403      50.32816720      50.35837079
C       49.71272825      49.80190729      48.89180368
O       51.14088747      49.36281800      50.97827106
H       50.72116442      51.20141251      49.98009336
H       49.46010212      50.49095789      51.03742248
H       49.24063732      50.66430979      48.35077607
H       50.52636453      49.48737465      48.21936054
H       48.87812488      49.04590895      49.08047361
H       50.57609641      48.82131852      51.54511334
