9
Lattice="100.0 0.0 0.0 0.0 100.0 0.0 0.0 0.0 100.0" Properties=species:S:1:pos:R:3 Energy=-97068.5234375 Energy_pyscf=-97063.34100998924 pbc="F F F"
C       50.18129790      50.30170367      50.38899002
C       49.69150965      49.91807454      49.01451816
O       51.18294447      49.25166999      50.80320649
H       50.46074065      51.32120894      50.27238647
H       49.45497797      50.33340791      51.12150270
H       48.78184700      50.29722546      48.64431149
H       50.52745289      49.95514808      48.29772478
H       49.78359050      48.71675977      48.86630506
H       51.06786335      49.39618330      51.81372330
