9
Lattice="100.0 0.0 0.0 0.0 100.0 0.0 0.0 0.0 100.0" Properties=species:S:1:pos:R:3 Energy=-97071.65625 Energy_pyscf=-97070.65670512475 pbc="F F F"
C       50.20087983      50.19995090      50.76756972
C       49.73979751      49.83157570      49.35521107
O       50.92501559      49.14922187      51.50047878
H       50.90852028      50.99799820      50.88118886
H       49.35527318      50.59131670      51.30415736
H       48.65256842      49.65834916      49.18408774
H       50.01722025      50.46689047      48.50788531
H       49.91932812      48.80778948      49.02237397
H       51.52752267      48.85472213      50.87142492
