9
Lattice="100.0 0.0 0.0 0.0 100.0 0.0 0.0 0.0 100.0" Properties=species:S:1:pos:R:3 Energy=-97081.6171875 Energy_pyscf=-97079.28925102254 pbc="F F F"
C       49.72884087      50.07148110      50.65837436
C       49.24624450      49.68361222      49.24224807
O       50.71096261      49.09741287      51.13035255
H       50.04707055      51.13743289      50.84183771
H       48.85833215      49.82857603      51.20730302
H       49.03205464      50.63818446      48.72804025
H       50.00870912      49.17354831      48.59315858
H       48.34990227      49.08592406      49.31773810
H       51.61312780      49.38913611      50.93267180
