16
Lattice="100.0 0.0 0.0 0.0 100.0 0.0 0.0 0.0 100.0" Properties=species:S:1:pos:R:3 Energy=-310675.7853856807 Energy_pyscf=-310677.31609342835 pbc="F F F" Energy_pyscf_og=-310675.4799352715
C       51.84106209      50.18199702      50.29219398
C       50.39622200      49.91244158      50.19007147
C       49.62472908      51.09871185      49.84519611
O       50.29484773      52.31036741      49.53964682
C       48.21809373      50.97809390      49.88649373
C       47.54344337      49.78193927      50.01202374
C       48.26892772      48.63197351      50.01984979
C       49.64723094      48.70539949      50.16221154
O       52.31092044      51.31031830      50.56004341
O       52.61763147      49.14819704      49.93979531
H       51.13600296      52.10187660      50.11485971
H       47.58805116      51.86615338      49.68921560
H       46.45359240      49.64276389      50.07970756
H       47.84316944      47.68136201      49.89967708
H       50.25616131      47.87635601      50.12870489
H       53.52871658      49.52702719      49.79559899
