16
Lattice="100.0 0.0 0.0 0.0 100.0 0.0 0.0 0.0 100.0" Properties=species:S:1:pos:R:3 Energy=-310678.77214588533 Energy_pyscf=-310678.36357218 pbc="F F F" Energy_pyscf_og=-310678.46413292305
C       51.97196852      50.15097522      49.95173658
C       50.48849622      49.95249074      49.83768986
C       49.70792010      51.09277136      49.75261270
O       50.27595781      52.32062493      49.64081036
C       48.32490376      51.05150223      49.86494700
C       47.62666039      49.72870776      49.96046492
C       48.44847836      48.60308404      49.79284349
C       49.78525092      48.75467249      49.80057267
O       52.47862556      51.28982574      49.88216709
O       52.65220253      49.00459224      50.31562441
H       51.32806089      52.15044478      49.65246414
H       47.58817631      51.88262993      49.99319087
H       46.59055589      49.73626188      49.91659054
H       47.95173567      47.59965202      49.78727279
H       50.30303443      47.87133418      49.84348660
H       53.50879284      49.38335015      50.56880321
