16
Lattice="100.0 0.0 0.0 0.0 100.0 0.0 0.0 0.0 100.0" Properties=species:S:1:pos:R:3 Energy=-310683.4606789473 Energy_pyscf=-310682.8459780058 pbc="F F F" Energy_pyscf_og=-310683.1501633224
C       51.80819533      49.94462992      50.08666037
C       50.34560892      49.81718694      50.07689322
C       49.57819927      50.98837363      49.87780947
O       49.98810816      52.30871496      49.89142497
C       48.23484827      50.85269433      49.74521816
C       47.64583039      49.57776945      49.90256413
C       48.37100577      48.29912959      50.19632655
C       49.76552154      48.46929927      50.15658847
O       52.37056701      51.01679055      50.14261706
O       52.52800099      48.73357024      50.11376334
H       50.96939990      52.33109048      49.88460009
H       47.65243306      51.81772308      49.67307816
H       46.57346039      49.55387453      49.89822944
H       47.87469503      47.32984517      50.21158602
H       50.34142040      47.57091930      50.02049974
H       53.52320440      48.90517639      50.19915920
