16
Lattice="100.0 0.0 0.0 0.0 100.0 0.0 0.0 0.0 100.0" Properties=species:S:1:pos:R:3 Energy=-310669.46073687956 Energy_pyscf=-310666.13012145454 pbc="F F F" Energy_pyscf_og=-310669.14987175487
C       51.92758170      50.18223994      50.23766004
C       50.49226106      49.91853495      50.27640626
C       49.64273397      51.14637295      49.93476748
O       50.19426829      52.32818955      49.92863645
C       48.25715678      51.10077870      49.80598219
C       47.70989135      49.87701553      49.90283829
C       48.43573493      48.67905743      49.91094343
C       49.84154204      48.65680252      50.10238092
O       52.35270263      51.30414029      49.91408718
O       52.68679657      49.06640511      50.20229561
H       51.21873842      52.17558996      50.14306954
H       47.61931355      52.10453783      49.89928393
H       46.70893209      49.89804011      50.00605602
H       47.91766351      47.69364532      49.89284585
H       50.14852052      47.64967829      49.77918871
H       53.56258731      49.34243558      49.90262747
