16
Lattice="100.0 0.0 0.0 0.0 100.0 0.0 0.0 0.0 100.0" Properties=species:S:1:pos:R:3 Energy=-310678.62087716325 Energy_pyscf=-310672.166452146 pbc="F F F" Energy_pyscf_og=-310678.32634075603
C       51.92178991      50.16821993      50.19027304
C       50.47847280      50.04101639      50.02256603
C       49.65423320      51.25570309      50.00434794
O       50.18905883      52.36208031      49.62688157
C       48.20881170      51.14773925      50.15827966
C       47.70362525      49.84103780      49.90259645
C       48.48505651      48.65375702      49.91766634
C       49.86315885      48.79163266      49.82042781
O       52.59393323      51.15929907      50.08354161
O       52.44461958      48.97172476      50.48769031
H       51.20011670      52.28082390      49.60391320
H       47.52631471      51.95822735      50.19985691
H       46.60594130      49.84784336      50.10860381
H       47.95912059      47.60214875      49.99460336
H       50.45765013      47.90721930      49.37723798
H       53.44688576      49.08238287      50.36993659
