16
Lattice="100.0 0.0 0.0 0.0 100.0 0.0 0.0 0.0 100.0" Properties=species:S:1:pos:R:3 Energy=-310668.0685005546 Energy_pyscf=-310659.5949683095 pbc="F F F" Energy_pyscf_og=-310667.7627348182
C       51.79353282      49.87987020      50.09302635
C       50.35871106      49.81649514      50.34421781
C       49.57509754      51.03007144      49.99030354
O       50.02778200      52.26581504      49.80769889
C       48.18516557      50.91187718      49.77453717
C       47.69817065      49.55540661      49.77438099
C       48.48498488      48.44975405      50.02967046
C       49.76537163      48.58425176      50.42512165
O       52.38132483      50.98557349      50.14239999
O       52.47259862      48.61203316      50.15522306
H       50.89734723      52.17413060      50.26877410
H       47.68892996      51.92459805      50.10116968
H       46.71716291      49.44094267      49.43387346
H       47.87613838      47.57180280      49.74812975
H       50.42188754      47.66985307      50.52104346
H       53.37741562      48.92301392      50.32381747
