16
Lattice="100.0 0.0 0.0 0.0 100.0 0.0 0.0 0.0 100.0" Properties=species:S:1:pos:R:3 Energy=-310680.416677496 Energy_pyscf=-310678.38348077313 pbc="F F F" Energy_pyscf_og=-310680.10469855316
C       51.83587594      50.07235920      50.27477748
C       50.41980701      49.96094603      50.31697790
C       49.63547042      51.17842327      50.01320896
O       50.18423981      52.46148283      50.11845298
C       48.27843733      50.94155115      49.83575172
C       47.67443758      49.69471740      50.13784052
C       48.36986399      48.52947501      50.27367696
C       49.82228378      48.72983964      50.29614930
O       52.43783810      51.16152975      50.44435641
O       52.54282787      48.87996555      50.29501362
H       51.14895766      52.46052314      50.12802426
H       47.69942362      51.91843001      49.61223237
H       46.58870405      49.63701992      50.00384210
H       47.78970002      47.55383464      50.17132755
H       50.45348821      47.85943697      50.37300478
H       53.50542008      49.18792949      50.11893172
