16
Lattice="100.0 0.0 0.0 0.0 100.0 0.0 0.0 0.0 100.0" Properties=species:S:1:pos:R:3 Energy=-310681.9446759205 Energy_pyscf=-310679.2382778079 pbc="F F F" Energy_pyscf_og=-310681.64062652795
C       51.89047101      50.08579056      50.22591288
C       50.45908216      49.93393418      49.95930479
C       49.64281750      51.12233465      49.83557020
O       50.17651134      52.37740381      49.73977987
C       48.24743201      51.01657979      49.92902817
C       47.59458061      49.86126677      50.03201060
C       48.36781941      48.70916851      49.89762115
C       49.81470567      48.75198740      49.93198752
O       52.45316709      51.26034822      50.30973618
O       52.66874159      48.95104341      50.10041780
H       51.15381177      52.19871921      49.84933414
H       47.74503710      51.92625694      50.10585695
H       46.57695314      49.98126287      50.04844479
H       47.87510957      47.73524642      49.85031097
H       50.49719360      47.84659147      49.92164394
H       53.59400830      49.32353286      50.09634561
