16
Lattice="100.0 0.0 0.0 0.0 100.0 0.0 0.0 0.0 100.0" Properties=species:S:1:pos:R:3 Energy=-310674.29278665443 Energy_pyscf=-310677.6597858008 pbc="F F F" Energy_pyscf_og=-310673.98811939557
C       51.84570336      49.98195907      49.93670341
C       50.33197752      49.89244992      49.73180712
C       49.52079101      51.03882226      49.65999695
O       50.11832064      52.31139237      49.53777468
C       48.13622431      51.02089578      49.68612020
C       47.53728437      49.72435501      49.75801954
C       48.29477753      48.59456924      49.96568198
C       49.68420966      48.69989245      50.03225344
O       52.30948754      50.93101200      50.58201777
O       52.69221207      48.96405472      49.50692424
H       51.00527203      52.10161720      49.93002208
H       47.62230292      51.90091132      49.50905785
H       46.49036078      49.51452747      49.79601661
H       48.00162672      47.51828826      49.99755423
H       50.30770840      47.88054176      50.29283247
H       53.49827616      49.07620520      50.02746043
