16
Lattice="100.0 0.0 0.0 0.0 100.0 0.0 0.0 0.0 100.0" Properties=species:S:1:pos:R:3 Energy=-310681.20012746693 Energy_pyscf=-310680.3662208648 pbc="F F F" Energy_pyscf_og=-310680.8904527407
C       52.00607670      50.11667812      50.28569556
C       50.52967502      49.93086504      49.94753581
C       49.68773774      51.12720984      49.85830004
O       50.19057710      52.33243500      49.79847599
C       48.29970382      50.95946608      49.79413161
C       47.66821423      49.74460710      49.77958100
C       48.51459217      48.63667585      49.80470024
C       49.88134208      48.64831348      49.88558522
O       52.69376570      51.14315678      50.09092450
O       52.67569990      48.99431713      50.41797959
H       51.19468834      52.19757188      49.80462171
H       47.67245564      51.92330445      49.84308617
H       46.63499793      49.73804071      49.88979143
H       48.11711614      47.60038951      49.72002796
H       50.27330792      47.69925646      49.87283731
H       53.61380472      49.29755602      50.22287911
