16
Lattice="100.0 0.0 0.0 0.0 100.0 0.0 0.0 0.0 100.0" Properties=species:S:1:pos:R:3 Energy=-310685.37781286787 Energy_pyscf=-310685.2312511752 pbc="F F F" Energy_pyscf_og=-310685.0643696656
C       51.77324112      49.95771559      50.29919352
C       50.35002837      49.84044776      50.31702779
C       49.60037745      51.01163291      50.03550043
O       50.06388370      52.32572841      50.07393435
C       48.22756194      50.80114241      49.76493203
C       47.57393824      49.58994544      49.89982620
C       48.35618068      48.37815898      50.27230604
C       49.73661377      48.59029540      50.42151212
O       52.33945697      51.02822913      50.05253656
O       52.44210106      48.77192133      50.35762672
H       50.93288394      52.19989785      50.46571242
H       47.70604386      51.70408486      49.46790340
H       46.56072841      49.35855262      49.61616341
H       47.85381955      47.43117824      50.27836240
H       50.33112536      47.73509962      50.48171172
H       53.38005673      48.90543812      50.25792319
