16
Lattice="100.0 0.0 0.0 0.0 100.0 0.0 0.0 0.0 100.0" Properties=species:S:1:pos:R:3 Energy=-310677.47543602285 Energy_pyscf=-310674.5968452804 pbc="F F F" Energy_pyscf_og=-310677.16073564277
C       51.77834206      50.06785397      49.92045519
C       50.37247506      49.88133522      49.87300454
C       49.55923988      51.01385242      49.71779529
O       50.11135167      52.23022270      49.81149974
C       48.12805335      50.92308586      49.70406153
C       47.54574803      49.74409407      49.64019696
C       48.28422629      48.58706688      50.00982713
C       49.66073208      48.64810341      50.08671175
O       52.45766371      51.10132034      50.20829883
O       52.48272997      48.86629223      49.93913025
H       51.08771204      52.02545201      49.77727370
H       47.67827178      51.89728983      49.57658761
H       46.48811997      49.49145377      49.56768863
H       47.77397971      47.64349559      50.02852717
H       50.13523800      47.81564623      50.43581433
H       53.37123421      48.84443178      50.26068233
