16
Lattice="100.0 0.0 0.0 0.0 100.0 0.0 0.0 0.0 100.0" Properties=species:S:1:pos:R:3 Energy=-310686.34717127867 Energy_pyscf=-310684.57657390955 pbc="F F F" Energy_pyscf_og=-310686.0378474587
C       51.83584265      50.18599424      50.34936378
C       50.42025308      50.04018391      50.39608625
C       49.59612610      51.18562023      50.05557635
O       50.20824696      52.38421743      50.10339578
C       48.26129380      50.95924937      50.00881892
C       47.66581292      49.70765890      50.05306742
C       48.42349240      48.56537031      50.19094852
C       49.78470837      48.74070125      50.32489530
O       52.47927494      51.23058743      50.24926361
O       52.50152970      48.93501782      50.41923958
H       51.15147479      52.28127109      50.02359687
H       47.57398104      51.77553671      49.72124784
H       46.55566893      49.72185342      49.92273100
H       47.98007305      47.62981931      50.14329149
H       50.49064376      47.89585726      50.28401125
H       53.43463737      48.98480285      50.17903793
