16
Lattice="100.0 0.0 0.0 0.0 100.0 0.0 0.0 0.0 100.0" Properties=species:S:1:pos:R:3 Energy=-310672.08356026333 Energy_pyscf=-310673.7478944578 pbc="F F F" Energy_pyscf_og=-310671.77486310585
C       51.83056339      50.00885939      49.95683846
C       50.40141829      49.80412291      49.79917892
C       49.61367592      50.98732633      49.67943762
O       50.14603043      52.23854735      49.56763501
C       48.22826539      50.94000333      49.64305752
C       47.51658490      49.72170902      49.86479270
C       48.28859178      48.52756366      49.94219410
C       49.65440292      48.64806698      49.96889181
O       52.15912017      51.06136149      50.40476447
O       52.62266159      48.98161931      49.77095947
H       51.01168334      52.37235741      50.12062874
H       47.79144206      51.86362846      49.26378540
H       46.42151863      49.63414761      50.04575091
H       47.77949644      47.45691472      49.90422440
H       50.33632112      47.75852537      50.13145913
H       53.58802011      49.17925769      49.92052012
