16
Lattice="100.0 0.0 0.0 0.0 100.0 0.0 0.0 0.0 100.0" Properties=species:S:1:pos:R:3 Energy=-310676.0295646697 Energy_pyscf=-310674.59994188073 pbc="F F F" Energy_pyscf_og=-310675.73191557283
C       51.91591135      50.32957891      50.20323554
C       50.46788336      50.11957210      50.21256843
C       49.55575866      51.27739639      49.80096315
O       50.13250773      52.47299799      50.02052335
C       48.15863222      51.13717138      49.77524204
C       47.59644535      49.89209243      49.96014190
C       48.41986696      48.72086253      50.09919941
C       49.77838950      48.85468967      50.04167207
O       52.47937313      51.40043136      50.25101700
O       52.57398406      49.12592237      50.08904566
H       51.19045584      52.29483844      49.96278160
H       47.62740824      52.09940310      49.65862822
H       46.50295603      49.85102193      49.85902501
H       48.08918848      47.66344649      50.44430679
H       50.36982403      47.91204035      50.12287187
H       53.49167849      49.38020979      50.16557963
