16
Lattice="100.0 0.0 0.0 0.0 100.0 0.0 0.0 0.0 100.0" Properties=species:S:1:pos:R:3 Energy=-310684.8475077941 Energy_pyscf=-310686.4921671005 pbc="F F F" Energy_pyscf_og=-310684.5381970451
C       51.90388351      50.02281994      50.13225762
C       50.42136063      49.90103407      50.23603099
C       49.60870640      51.02357510      50.06140044
O       50.13035004      52.24405736      50.02101635
C       48.17170316      50.91234541      49.90152106
C       47.57819453      49.61368805      49.88599058
C       48.40736571      48.51638865      50.01194028
C       49.78686440      48.62556465      50.20216974
O       52.67938300      51.01928972      50.08270938
O       52.40602442      48.76709288      50.20783610
H       51.12038082      52.23551828      50.15729106
H       47.51273888      51.75311044      49.95627900
H       46.51782434      49.45941666      49.49929633
H       48.02376940      47.48024551      49.92056043
H       50.39204419      47.68486804      50.26020844
H       53.33276263      48.83358663      50.61748935
