16
Lattice="100.0 0.0 0.0 0.0 100.0 0.0 0.0 0.0 100.0" Properties=species:S:1:pos:R:3 Energy=-310680.8839273763 Energy_pyscf=-310681.00738909194 pbc="F F F" Energy_pyscf_og=-310680.57276319346
C       51.83896522      50.01114633      49.97763226
C       50.36751851      49.87526042      49.89453022
C       49.55765603      50.98922065      49.64547525
O       50.06948741      52.26887235      49.72298184
C       48.14554881      50.92045457      49.60962945
C       47.52425267      49.71181990      49.85564407
C       48.28152457      48.54467715      49.90677146
C       49.76156420      48.62947682      49.99934635
O       52.43552594      51.08714470      50.20285012
O       52.55468168      48.84864668      49.82520993
H       50.98945178      52.44317552      50.06763400
H       47.62609655      51.86798466      49.36013290
H       46.35366025      49.72078761      49.79673360
H       47.94190362      47.51008458      50.09322112
H       50.37800635      47.64957715      49.99956683
H       53.53928969      49.10507171      50.01418540
