16
Lattice="100.0 0.0 0.0 0.0 100.0 0.0 0.0 0.0 100.0" Properties=species:S:1:pos:R:3 Energy=-310672.50510287686 Energy_pyscf=-310670.4913626294 pbc="F F F" Energy_pyscf_og=-310672.20378950716
C       51.80347407      50.14983350      50.17288338
C       50.42061909      49.97821786      49.84527344
C       49.69288305      51.20032712      49.82241856
O       50.26475077      52.46770794      49.83218687
C       48.30430687      51.05545461      49.92704165
C       47.71454797      49.86222702      50.03039474
C       48.41855166      48.61287262      50.05974480
C       49.79719162      48.78261836      49.92124791
O       52.36468775      51.26031345      50.16482623
O       52.59311096      48.97106884      50.16057338
H       51.31226004      52.24081475      49.87345157
H       47.76299355      52.01053719      50.11869385
H       46.65751202      49.81852425      49.99585031
H       47.94332684      47.57632300      50.05125390
H       50.23566050      47.79151729      49.53379472
H       53.39573209      49.37090792      50.36532917
