16
Lattice="100.0 0.0 0.0 0.0 100.0 0.0 0.0 0.0 100.0" Properties=species:S:1:pos:R:3 Energy=-310683.1479670639 Energy_pyscf=-310682.2359813106 pbc="F F F" Energy_pyscf_og=-310682.83899139974
C       51.85860695      49.97818326      49.95449857
C       50.44384011      49.87083405      49.89405895
C       49.55869448      51.02488725      49.80622488
O       50.00638468      52.31296462      49.68276918
C       48.22366795      50.89079909      49.62012807
C       47.55281294      49.69873752      49.81977738
C       48.30252160      48.54009915      49.96202463
C       49.72414320      48.61425085      49.94955014
O       52.41326856      51.09466958      50.10978691
O       52.54258709      48.85405359      49.92341289
H       50.98344735      52.26045211      50.07116480
H       47.81275773      51.83790465      49.40767291
H       46.42194077      49.66880813      49.68889458
H       47.80592372      47.46207904      50.07696663
H       50.37881981      47.77294195      50.08291761
H       53.40309544      49.26232440      49.90093312
