16
Lattice="100.0 0.0 0.0 0.0 100.0 0.0 0.0 0.0 100.0" Properties=species:S:1:pos:R:3 Energy=-310672.85777529655 Energy_pyscf=-310671.1224048447 pbc="F F F" Energy_pyscf_og=-310672.55918921565
C       51.81020911      50.04958805      50.06337664
C       50.34425216      49.97751825      49.93551697
C       49.55094548      51.11700805      49.81749668
O       49.99846962      52.31316168      49.86125132
C       48.15134412      50.99950484      49.81135387
C       47.50368777      49.75394336      49.92891914
C       48.20912640      48.57677746      49.95903736
C       49.69082886      48.72280557      49.92846283
O       52.30913902      51.15335902      49.95526693
O       52.59433168      48.90481908      50.17557022
H       51.00783510      52.27147831      49.95224775
H       47.68795227      51.94096950      49.69257995
H       46.51292702      49.92474569      49.55893255
H       47.72112274      47.70539648      49.85684461
H       50.48426173      47.93750844      49.74613739
H       53.46183111      49.28901363      50.19514502
