16
Lattice="100.0 0.0 0.0 0.0 100.0 0.0 0.0 0.0 100.0" Properties=species:S:1:pos:R:3 Energy=-310683.25626410096 Energy_pyscf=-310682.94857248146 pbc="F F F" Energy_pyscf_og=-310682.9516266934
C       51.93468309      50.19434442      50.17908473
C       50.48169130      49.96313282      49.90868207
C       49.69892923      51.18529323      49.95510001
O       50.22809002      52.40600563      49.82888463
C       48.30273541      51.06860166      49.92890059
C       47.68337792      49.86842857      50.01297492
C       48.38864249      48.67307961      49.89684265
C       49.77711265      48.64459431      49.83161093
O       52.49061111      51.32060481      49.99939245
O       52.60798035      49.07094318      50.24355946
H       51.21405701      52.24804524      49.91619893
H       47.76702227      51.95603110      50.11925661
H       46.50947278      49.79003527      50.00139130
H       47.76637522      47.69875411      50.00659017
H       50.25514741      47.67437041      49.74300741
H       53.60981493      49.29902096      50.30093708
