16
Lattice="100.0 0.0 0.0 0.0 100.0 0.0 0.0 0.0 100.0" Properties=species:S:1:pos:R:3 Energy=-310676.7471947672 Energy_pyscf=-310677.27166735084 pbc="F F F" Energy_pyscf_og=-310676.4395605813
C       51.79390275      49.86618692      50.27272278
C       50.35976126      49.62024945      49.99927979
C       49.56723878      50.86354200      49.88778735
O       50.02765420      52.19123871      49.86168325
C       48.15010613      50.74294073      49.62643475
C       47.55525255      49.55628969      49.93269842
C       48.27849203      48.35433834      50.06906640
C       49.63531741      48.40618706      50.10763864
O       52.35652760      51.00959765      50.44262947
O       52.57248124      48.79826190      50.07077176
H       50.98353397      52.17893993      50.11512608
H       47.62883698      51.75361752      49.52202792
H       46.49621909      49.50586684      49.81686336
H       47.78554919      47.45186177      50.41684946
H       50.33118010      47.55177930      50.36720936
H       53.33162930      49.09077010      49.55684073
