16
Lattice="100.0 0.0 0.0 0.0 100.0 0.0 0.0 0.0 100.0" Properties=species:S:1:pos:R:3 Energy=-310685.5350091706 Energy_pyscf=-310683.3828100972 pbc="F F F" Energy_pyscf_og=-310685.22156733985
C       51.90721760      50.20706253      50.12631107
C       50.43134021      49.98649671      49.83543505
C       49.64409379      51.16339842      49.81057793
O       50.21251585      52.33999362      49.74505983
C       48.23079003      51.12447360      49.76664965
C       47.62517638      49.92215994      50.04251307
C       48.36032592      48.70886304      50.09517353
C       49.74523027      48.79439229      49.96990052
O       52.48630768      51.26119868      50.48350763
O       52.59800966      49.13080347      49.91049543
H       51.16904001      52.15310431      49.94565302
H       47.64695147      51.97515224      49.46382380
H       46.56511729      49.74251093      49.82983212
H       47.85359703      47.81153704      50.28345511
H       50.16822497      47.80164457      49.98026809
H       53.47538476      49.28011785      50.31836169
