16
Lattice="100.0 0.0 0.0 0.0 100.0 0.0 0.0 0.0 100.0" Properties=species:S:1:pos:R:3 Energy=-310673.1283656504 Energy_pyscf=-310669.5717319845 pbc="F F F" Energy_pyscf_og=-310672.8349456364
C       51.91119267      50.12096338      50.01740555
C       50.50520890      49.92544903      49.66405978
C       49.70332721      51.15620573      49.76992073
O       50.34659128      52.34045832      49.71394550
C       48.31691361      51.07620241      49.96280707
C       47.68224950      49.83065097      49.94631129
C       48.54389278      48.63849622      49.87909606
C       49.96682662      48.68659082      49.71160720
O       52.43157392      51.24278644      50.31035126
O       52.65416060      49.05552318      50.32349533
H       51.20514332      51.92578665      49.84918052
H       47.69418215      51.94864570      49.91598893
H       46.64911168      49.60566240      49.78889897
H       48.00662586      47.61558748      49.77460676
H       50.41650967      47.65076089      49.88625299
H       53.61620421      49.32761730      50.49003550
