16
Lattice="100.0 0.0 0.0 0.0 100.0 0.0 0.0 0.0 100.0" Properties=species:S:1:pos:R:3 Energy=-310672.5951388982 Energy_pyscf=-310674.5927581456 pbc="F F F" Energy_pyscf_og=-310672.29391777434
C       51.86217952      49.92735589      50.17474085
C       50.32510029      49.68928669      50.01136949
C       49.54442040      50.87598216      49.77479425
O       50.01118877      52.20976173      49.71636850
C       48.13463474      50.82855766      49.70463015
C       47.55021359      49.52206258      49.75732629
C       48.28440944      48.40200525      50.11118307
C       49.64690462      48.48125993      50.14030038
O       52.38833010      50.94783056      50.48426082
O       52.62034591      48.72163467      49.88056974
H       50.87768417      52.15032418      50.14937192
H       47.48179546      51.67224131      49.64515165
H       46.42464773      49.40323302      49.97272249
H       47.73395315      47.58814761      50.46174950
H       50.33030336      47.60958804      50.16620463
H       53.62991182      48.93481630      49.93189218
