16
Lattice="100.0 0.0 0.0 0.0 100.0 0.0 0.0 0.0 100.0" Properties=species:S:1:pos:R:3 Energy=-310676.14583046094 Energy_pyscf=-310675.20425977185 pbc="F F F" Energy_pyscf_og=-310675.841902887
C       51.90608754      50.12653389      50.17655499
C       50.42087981      49.94824666      49.89247772
C       49.66602720      51.18944329      49.77334116
O       50.22342185      52.44027391      49.76655327
C       48.30300995      51.17593188      49.97297716
C       47.67004533      49.79487848      50.02484105
C       48.36487516      48.58420248      49.98905869
C       49.80980702      48.67355732      49.99533436
O       52.47742708      51.21117232      50.32913395
O       52.54624310      48.94808146      50.08828321
H       51.11014800      52.26640058      49.97779253
H       47.74270789      52.16359136      49.99444387
H       46.59129570      49.84651866      50.02187836
H       47.98953344      47.59185750      49.95535997
H       50.48840087      47.90780063      49.73270042
H       53.44192229      49.23925278      50.12942457
