16
Lattice="100.0 0.0 0.0 0.0 100.0 0.0 0.0 0.0 100.0" Properties=species:S:1:pos:R:3 Energy=-310685.4257326753 Energy_pyscf=-310686.84627285635 pbc="F F F" Energy_pyscf_og=-310685.1282219806
C       51.85318591      50.18667993      50.27009014
C       50.39596315      50.04075033      50.16802702
C       49.58614073      51.18808819      50.00958327
O       50.14749860      52.38483076      50.08589835
C       48.14930700      51.05517759      49.88312861
C       47.67182398      49.77410047      49.87364886
C       48.41460192      48.65178199      50.25678886
C       49.75421605      48.71731054      50.38674898
O       52.43940675      51.22729844      50.31730658
O       52.51815234      49.03037364      50.20304538
H       51.21105602      52.20482469      50.05535271
H       47.49438054      51.90407042      49.62014247
H       46.56402550      49.68900188      49.76061248
H       47.91203636      47.71314847      50.35654717
H       50.43374325      47.91653238      50.31685816
H       53.48885679      49.17745011      50.25985146
