16
Lattice="100.0 0.0 0.0 0.0 100.0 0.0 0.0 0.0 100.0" Properties=species:S:1:pos:R:3 Energy=-310683.75214407715 Energy_pyscf=-310682.5807751824 pbc="F F F" Energy_pyscf_og=-310683.4500657635
C       51.82592739      50.15050120      50.13611784
C       50.37909767      49.99709753      49.93956125
C       49.67971278      51.18466905      49.89389428
O       50.22903270      52.43813025      49.81461594
C       48.30293777      51.14781987      50.03754655
C       47.69395663      49.85166167      49.99766295
C       48.45405342      48.65201575      49.93395998
C       49.81896570      48.77958081      49.88254601
O       52.48362041      51.19483431      50.03533192
O       52.51702199      48.96361708      50.43679904
H       51.17590547      52.32334177      50.02309501
H       47.65095443      51.99867789      49.87158977
H       46.65205170      49.80586708      50.12666423
H       47.97892433      47.64833792      49.89388643
H       50.51617467      47.88413940      49.75075471
H       53.33627578      49.10013576      50.02787515
