16
Lattice="100.0 0.0 0.0 0.0 100.0 0.0 0.0 0.0 100.0" Properties=species:S:1:pos:R:3 Energy=-310690.0273251499 Energy_pyscf=-310689.38246312056 pbc="F F F" Energy_pyscf_og=-310689.72740686446
C       51.89453171      50.17412527      50.04640704
C       50.49568575      49.98685370      49.96196478
C       49.67394995      51.16200283      49.95162460
O       50.15991154      52.45239387      49.88785030
C       48.26621985      51.07901823      49.94958698
C       47.68059159      49.82784886      49.98052157
C       48.49935311      48.67123483      49.96819682
C       49.86434095      48.70974400      49.87076873
O       52.56113381      51.23354333      49.94613121
O       52.50320672      48.92788776      50.19064642
H       51.18141164      52.42868890      49.85949940
H       47.64466405      51.94964007      50.16390474
H       46.59982035      49.80529590      49.95514535
H       47.86570456      47.73381029      49.92726587
H       50.39330150      47.83049440      49.79412147
H       53.41422820      49.12820629      50.37000422
