16
Lattice="100.0 0.0 0.0 0.0 100.0 0.0 0.0 0.0 100.0" Properties=species:S:1:pos:R:3 Energy=-310681.0148099101 Energy_pyscf=-310681.59015430545 pbc="F F F" Energy_pyscf_og=-310680.70624899963
C       51.87336433      50.12389407      50.21476519
C       50.38955470      50.01715362      50.21777003
C       49.62208248      51.15468265      49.97002830
O       50.08748386      52.37952726      50.14879313
C       48.19061772      51.00898954      49.69448089
C       47.62616635      49.82944118      49.90752450
C       48.38106387      48.69370471      50.29498555
C       49.74659455      48.76668110      50.32914489
O       52.45981539      51.18367514      50.46498029
O       52.64452743      49.01682318      50.01393181
H       51.08748791      52.37373219      50.22337406
H       47.58326517      51.81874622      49.55273376
H       46.56861165      49.78734860      49.67750997
H       47.96940442      47.76459779      50.52622446
H       50.18723855      47.72300369      50.42228250
H       53.61340995      49.30384307      50.13517339
