16
Lattice="100.0 0.0 0.0 0.0 100.0 0.0 0.0 0.0 100.0" Properties=species:S:1:pos:R:3 Energy=-310687.9139503716 Energy_pyscf=-310687.3508974095 pbc="F F F" Energy_pyscf_og=-310687.61893044267
C       51.94380940      50.13461572      50.12773942
C       50.48974129      50.05082003      49.90415137
C       49.65292875      51.17438888      49.87604130
O       50.16037638      52.39747033      49.86892998
C       48.25989616      51.06589871      49.98325024
C       47.71261572      49.78378620      50.02667686
C       48.42518234      48.65330744      49.89623416
C       49.87644408      48.78206664      49.86571635
O       52.54026173      51.26640934      50.10928879
O       52.48990997      48.95212277      50.19979149
H       51.19662900      52.29281877      49.83809425
H       47.68967589      52.02305823      50.10076004
H       46.59506120      49.80718365      50.02521817
H       47.90483660      47.71421570      49.94868333
H       50.35830533      47.83041918      49.80225914
H       53.46806032      49.19414988      50.27884889
