16
Lattice="100.0 0.0 0.0 0.0 100.0 0.0 0.0 0.0 100.0" Properties=species:S:1:pos:R:3 Energy=-310686.6963530828 Energy_pyscf=-310685.3139892053 pbc="F F F" Energy_pyscf_og=-310686.3957136354
C       51.89222439      50.06041598      49.99202505
C       50.38790154      49.81281134      49.89591484
C       49.60732523      50.96801633      49.67294905
O       50.04573225      52.23207451      49.84982496
C       48.19590708      50.89626837      49.52292754
C       47.46006401      49.70239172      49.79186522
C       48.28013483      48.57333220      50.01264173
C       49.69258139      48.58855337      49.92628862
O       52.42428472      51.18744648      50.08592530
O       52.66326014      48.95982310      49.89499674
H       51.00932253      52.17242339      50.17380058
H       47.77657983      51.83635258      49.33444491
H       46.38921072      49.75328186      49.75575010
H       47.92708201      47.50130624      50.10997323
H       50.07938664      47.60807331      50.08721100
H       53.54695347      49.32064278      49.85604613
