16
Lattice="100.0 0.0 0.0 0.0 100.0 0.0 0.0 0.0 100.0" Properties=species:S:1:pos:R:3 Energy=-310684.98419132037 Energy_pyscf=-310685.4326565514 pbc="F F F" Energy_pyscf_og=-310684.6773298537
C       51.90505684      50.19635156      50.26463409
C       50.42635476      50.08900370      50.19591738
C       49.57251552      51.15559637      50.06123482
O       50.12147883      52.39683121      50.04987840
C       48.15060547      51.03091571      49.90869105
C       47.60883657      49.80615969      49.92929761
C       48.42568356      48.70329086      50.26095855
C       49.82050572      48.80666502      50.23208234
O       52.60166141      51.19490343      50.30977598
O       52.42588101      48.96958148      50.12510611
H       51.08985342      52.17775084      50.03602133
H       47.57029445      51.99883617      49.63309744
H       46.56220198      49.58248599      49.78312775
H       47.88620972      47.71164887      50.31774163
H       50.57159060      47.95804082      50.38749788
H       53.32574386      49.13602968      50.40143457
