16
Lattice="100.0 0.0 0.0 0.0 100.0 0.0 0.0 0.0 100.0" Properties=species:S:1:pos:R:3 Energy=-310677.49535312713 Energy_pyscf=-310679.5255811118 pbc="F F F" Energy_pyscf_og=-310677.1891995573
C       51.84635133      50.11762846      50.23422836
C       50.39892784      49.94269435      50.37347861
C       49.60717405      51.17137012      50.02373239
O       50.21367753      52.36386327      49.93434495
C       48.26494769      50.99978835      49.73883850
C       47.62221350      49.79155390      49.88712985
C       48.37607312      48.61880628      50.16109924
C       49.71437054      48.67367329      50.43863799
O       52.40939906      51.27094417      50.20375843
O       52.70628130      49.01109020      50.10513369
H       51.29610768      52.02983360      49.94744928
H       47.70765733      51.79827394      49.33394292
H       46.63812432      49.74764836      49.38213844
H       47.81692723      47.79911036      50.28006618
H       50.24864965      47.76028207      50.69776318
H       53.54398341      49.45724463      49.86012206
