16
Lattice="100.0 0.0 0.0 0.0 100.0 0.0 0.0 0.0 100.0" Properties=species:S:1:pos:R:3 Energy=-310679.42346529145 Energy_pyscf=-310677.0663835452 pbc="F F F" Energy_pyscf_og=-310679.1298344833
C       51.97363102      50.20786998      50.19351910
C       50.53286773      49.97073503      49.96081892
C       49.68996669      51.13915691      50.00682175
O       50.09906261      52.39046247      49.88005083
C       48.26341788      51.05825461      49.94929665
C       47.61580829      49.83537800      49.90702748
C       48.39489219      48.66100871      49.87010636
C       49.81034177      48.70814768      49.83896832
O       52.60301205      51.24610521      49.99855420
O       52.62682134      49.05368571      50.28362296
H       51.07587476      52.12582279      49.82525754
H       47.68563427      51.97296141      50.15028347
H       46.53939548      49.96594800      49.96141605
H       47.81556444      47.79489483      50.10273759
H       50.43601602      47.73943494      49.67007791
H       53.60473805      49.28043572      50.25108940
