16
Lattice="100.0 0.0 0.0 0.0 100.0 0.0 0.0 0.0 100.0" Properties=species:S:1:pos:R:3 Energy=-310684.04040203564 Energy_pyscf=-310682.8133223822 pbc="F F F" Energy_pyscf_og=-310683.7374654703
C       51.82591084      49.98960824      50.20269295
C       50.43043771      49.91039212      50.23675973
C       49.56681685      51.04080275      50.09678822
O       50.10008487      52.25014527      49.99205347
C       48.18334386      50.85367486      50.02287567
C       47.65380480      49.57271900      49.88525640
C       48.44724247      48.47320438      50.07778902
C       49.82816029      48.68326602      50.16029011
O       52.50273093      51.07339860      50.04630784
O       52.37437093      48.77221984      50.41651503
H       51.16321966      52.12120319      50.13262506
H       47.61227649      51.76167954      49.89313645
H       46.54181008      49.44335543      49.49847288
H       47.95274173      47.54729186      49.83399037
H       50.43752801      47.81105250      50.23797064
H       53.33944800      48.78391179      50.44346655
