16
Lattice="100.0 0.0 0.0 0.0 100.0 0.0 0.0 0.0 100.0" Properties=species:S:1:pos:R:3 Energy=-310683.49360813195 Energy_pyscf=-310682.53078664094 pbc="F F F" Energy_pyscf_og=-310683.2006704822
C       51.91687697      50.08898926      50.04812955
C       50.44440950      50.00760384      50.00971582
C       49.64228222      51.18369846      49.81782746
O       50.13554651      52.39861883      49.86719533
C       48.22132489      51.07652599      49.95150774
C       47.66234411      49.77840110      49.96083715
C       48.45040346      48.57233553      49.86867260
C       49.86177712      48.73112175      49.89094409
O       52.59359492      51.13710090      50.08414423
O       52.55919842      48.90202567      50.18295481
H       51.13927817      52.32720591      49.84267667
H       47.67633015      51.98893900      50.20771906
H       46.56222918      49.97538626      49.98333039
H       47.85629113      47.71723107      50.02794342
H       50.50102750      47.90787737      49.75156765
H       53.50271969      49.28628610      50.34714460
