16
Lattice="100.0 0.0 0.0 0.0 100.0 0.0 0.0 0.0 100.0" Properties=species:S:1:pos:R:3 Energy=-310685.28704180894 Energy_pyscf=-310683.74275824626 pbc="F F F" Energy_pyscf_og=-310684.9876922714
C       51.82390170      50.17501977      50.10154641
C       50.38341707      50.00334047      49.84664687
C       49.65622736      51.21343771      49.76393804
O       50.25998823      52.42973074      49.71606496
C       48.24080521      51.04323402      49.71043176
C       47.56158790      49.86085144      49.98778935
C       48.37179452      48.67789708      50.10555830
C       49.72235120      48.72127899      49.85109580
O       52.34266305      51.31838763      50.32153886
O       52.71785517      49.07560449      49.90572681
H       51.20710285      52.23637981      50.00169715
H       47.71500695      51.95540204      49.50544581
H       46.43613696      49.89612078      49.99197415
H       47.81527188      47.74763329      50.33371082
H       50.35373683      47.83685655      49.88750163
H       53.51487914      49.19633479      50.53378243
