16
Lattice="100.0 0.0 0.0 0.0 100.0 0.0 0.0 0.0 100.0" Properties=species:S:1:pos:R:3 Energy=-310696.1530678842 Energy_pyscf=-310696.4486550712 pbc="F F F" Energy_pyscf_og=-310695.8486439111
C       51.83159620      50.11808309      50.24467470
C       50.40333090      49.96979461      50.17070602
C       49.61430548      51.18365777      50.05471955
O       50.18397635      52.40047236      49.97319162
C       48.18277543      51.07871407      49.89279356
C       47.63413001      49.76970805      49.97854062
C       48.39556292      48.64828871      50.23293568
C       49.78224344      48.72505434      50.34633878
O       52.41018971      51.18580128      50.35066778
O       52.57866751      48.96732048      50.23118106
H       51.16647088      52.34280259      50.07094961
H       47.54692295      51.99057543      49.62348143
H       46.56818780      49.70026305      49.75475003
H       47.89191076      47.63531966      50.30939756
H       50.38079957      47.86552333      50.38616442
H       53.48309498      49.32471774      50.23054106
