16
Lattice="100.0 0.0 0.0 0.0 100.0 0.0 0.0 0.0 100.0" Properties=species:S:1:pos:R:3 Energy=-310692.5139910455 Energy_pyscf=-310692.7771614002 pbc="F F F" Energy_pyscf_og=-310692.2190878539
C       51.93753992      50.08122672      50.07023562
C       50.48614366      49.98862408      49.94279524
C       49.65922004      51.15118678      49.92715130
O       50.22605427      52.38737784      49.76126854
C       48.27254053      51.04564704      49.92323535
C       47.70450756      49.73993817      49.94445774
C       48.50852083      48.57281661      49.81194059
C       49.90632698      48.66237034      49.82986133
O       52.57616108      51.14601818      50.00964802
O       52.60886854      48.96601559      50.39856016
H       51.18529384      52.15899701      49.72140658
H       47.83693417      51.99495120      49.81690273
H       46.63742701      49.58117175      49.92900599
H       48.03617397      47.61479423      49.53443885
H       50.51740963      47.75087667      49.84416826
H       53.56853682      49.26595406      50.54116296
