16
Lattice="100.0 0.0 0.0 0.0 100.0 0.0 0.0 0.0 100.0" Properties=species:S:1:pos:R:3 Energy=-310671.73612087354 Energy_pyscf=-310673.40280538757 pbc="F F F" Energy_pyscf_og=-310671.43655138585
C       51.87323074      50.12537133      50.10549742
C       50.46732099      49.91107780      49.90796638
C       49.75422412      51.05937830      49.86062053
O       50.21432438      52.39564442      49.80155199
C       48.32728706      51.04828870      49.83238073
C       47.63403265      49.81220637      49.88309784
C       48.37452200      48.64877264      50.03728753
C       49.73114002      48.72259402      49.95759165
O       52.48763855      51.28410055      50.03698676
O       52.57228420      49.02034761      50.23462233
H       51.22108545      52.35808010      50.02017105
H       47.81088615      51.92797160      50.22339987
H       46.49703269      49.91705207      49.98112198
H       47.91585582      47.66052433      50.03080162
H       50.34228685      47.87395440      49.63627109
H       53.50068371      49.33543766      50.28741076
