16
Lattice="100.0 0.0 0.0 0.0 100.0 0.0 0.0 0.0 100.0" Properties=species:S:1:pos:R:3 Energy=-310676.82266884757 Energy_pyscf=-310675.5827455944 pbc="F F F" Energy_pyscf_og=-310676.5105243555
C       51.92072715      50.12931682      50.24358241
C       50.39465945      50.04682196      50.06694043
C       49.56036277      51.17059968      49.96019363
O       50.17537168      52.46324105      49.97244740
C       48.13441155      51.04676579      49.97974556
C       47.59584717      49.72848164      50.01540022
C       48.39851940      48.65151886      50.21146362
C       49.76135919      48.76668779      50.39034503
O       52.62284414      51.14936892      50.49989758
O       52.55372073      48.90234441      50.13385739
H       51.09077543      52.23340908      50.05185539
H       47.51611966      51.93205660      49.61430766
H       46.58567644      49.69878273      49.73611468
H       47.87568751      47.69190448      50.26587978
H       50.44034753      47.90547367      50.42797767
H       53.40104885      49.34398047      50.28161528
