16
Lattice="100.0 0.0 0.0 0.0 100.0 0.0 0.0 0.0 100.0" Properties=species:S:1:pos:R:3 Energy=-310685.1967811694 Energy_pyscf=-310679.8529029179 pbc="F F F" Energy_pyscf_og=-310684.88276956044
C       51.79815048      50.03461603      49.96585675
C       50.41299648      49.86483806      49.96787044
C       49.54656940      51.03197491      49.80877794
O       50.08447521      52.21336616      49.78781300
C       48.15730445      50.88362527      49.68244369
C       47.54740907      49.69629022      49.62449305
C       48.31130717      48.59398374      49.88929113
C       49.71133381      48.68702722      50.09281570
O       52.43129933      51.09597072      49.83677416
O       52.41296313      48.90339770      50.11022882
H       51.12751395      52.03884413      49.87332277
H       47.67032554      51.85461618      49.64311472
H       46.51044506      49.53518952      49.53078819
H       47.72890395      47.75108611      50.03416680
H       50.13060487      47.69365549      50.37808676
H       53.34165958      48.94427032      50.28319501
