16
Lattice="100.0 0.0 0.0 0.0 100.0 0.0 0.0 0.0 100.0" Properties=species:S:1:pos:R:3 Energy=-310665.3783864026 Energy_pyscf=-310664.51666321896 pbc="F F F" Energy_pyscf_og=-310665.0481295505
C       51.87683915      50.10123679      50.21972877
C       50.36273870      49.96471778      49.99977055
C       49.53763166      51.07529385      49.92480463
O       50.02981382      52.28015693      49.63477966
C       48.17846365      50.87191017      49.98952225
C       47.48781154      49.69673002      50.11050254
C       48.28209579      48.49088220      49.99290506
C       49.60470579      48.64173666      50.02544283
O       52.41504934      51.20492369      50.57850515
O       52.61086591      48.96570179      50.12647970
H       51.04478783      52.37149903      49.48748443
H       47.48290822      51.78486241      50.17865333
H       46.43283814      49.57994317      50.22254870
H       47.79151088      47.41991999      50.11589465
H       50.20560258      47.64009290      50.22540409
H       53.47925011      49.02230459      50.49551351
