16
Lattice="100.0 0.0 0.0 0.0 100.0 0.0 0.0 0.0 100.0" Properties=species:S:1:pos:R:3 Energy=-310679.13393564994 Energy_pyscf=-310675.08097975753 pbc="F F F" Energy_pyscf_og=-310678.8455682786
C       51.86495865      50.01081156      50.15715697
C       50.43771014      49.93394749      50.22170122
C       49.65912548      51.13944872      49.98290156
O       50.19716350      52.31229309      50.04515719
C       48.24544616      51.02162884      49.77469803
C       47.57863047      49.81032650      49.67257565
C       48.32985851      48.68692553      50.13703081
C       49.79239108      48.67302304      50.32922691
O       52.43022632      51.17079282      50.09794286
O       52.69486637      48.90455593      50.23005040
H       51.18745477      52.20805157      49.98067627
H       47.66242607      51.86498780      49.35278495
H       46.52637113      49.83700628      49.47214113
H       47.92160955      47.76540847      50.43164941
H       50.37679081      47.71414279      50.68297601
H       53.48259324      49.52650744      50.02568044
