16
Lattice="100.0 0.0 0.0 0.0 100.0 0.0 0.0 0.0 100.0" Properties=species:S:1:pos:R:3 Energy=-310671.7086180664 Energy_pyscf=-310667.2511982125 pbc="F F F" Energy_pyscf_og=-310671.400614289
C       51.83750893      50.08283788      50.04773147
C       50.46923119      49.93459590      49.92164169
C       49.59977741      51.04985271      49.75550035
O       50.11993026      52.33663975      49.62250892
C       48.15185288      50.89562950      49.65374319
C       47.44320069      49.69157790      49.70453626
C       48.29036560      48.62728241      49.84512938
C       49.64173243      48.65442096      50.08849229
O       52.45663631      51.13394503      50.24567160
O       52.46849546      48.85069916      49.87889814
H       51.13103296      52.22197879      49.81939268
H       47.68779623      51.86696287      49.52620817
H       46.33736863      49.41651676      49.74085456
H       47.87068050      47.67103733      49.97442701
H       49.99426098      47.55896935      50.42738357
H       53.39048174      48.82549171      50.25741437
