16
Lattice="100.0 0.0 0.0 0.0 100.0 0.0 0.0 0.0 100.0" Properties=species:S:1:pos:R:3 Energy=-310679.0094124509 Energy_pyscf=-310679.4980036093 pbc="F F F" Energy_pyscf_og=-310678.69722261326
C       51.79735014      50.04180112      50.18347754
C       50.33425497      49.82460034      50.26604263
C       49.53247864      50.94387687      50.06189049
O       49.98555234      52.28946704      49.98715248
C       48.17207092      50.75340438      49.86055880
C       47.53260368      49.60598332      49.87387825
C       48.27126368      48.44519868      50.26991188
C       49.65594421      48.58587613      50.38386341
O       52.41670086      51.12263066      50.38473654
O       52.53689966      48.86787812      50.18386605
H       50.95383961      52.48252747      50.23083663
H       47.63508367      51.68193917      49.64459423
H       46.48446582      49.40837302      49.68450803
H       47.91905717      47.40902680      50.23746682
H       50.20933974      47.62841692      50.49706799
H       53.49595433      49.06827274      50.00451252
