16
Lattice="100.0 0.0 0.0 0.0 100.0 0.0 0.0 0.0 100.0" Properties=species:S:1:pos:R:3 Energy=-310691.10396398604 Energy_pyscf=-310680.17909307254 Energy_pyscf_og=-310690.8021245132 pbc="F F F"
C       52.02121423      49.98923451      49.97420128
C       50.54001576      49.96712470      49.87797629
C       49.63602395      51.10851014      49.88220808
O       50.06013738      52.41857484      49.85265591
C       48.23934111      50.89499745      49.85515410
C       47.73681952      49.57299504      49.81016620
C       48.54866027      48.47572637      49.86523025
C       49.93491206      48.68292685      49.85591562
O       52.84234539      50.92710436      49.79875434
O       52.35364327      48.87138299      50.55676648
H       50.86901569      52.47212071      49.29038405
H       47.49322046      51.69834268      49.85352305
H       46.64769850      49.49095514      49.67077918
H       48.04805257      47.48646494      49.89134236
H       50.49876051      47.77055706      49.67346565
H       53.30804470      48.84155621      50.71331079
