16
Lattice="100.0 0.0 0.0 0.0 100.0 0.0 0.0 0.0 100.0" Properties=species:S:1:pos:R:3 Energy=-310678.7376220159 Energy_pyscf=-310678.940294732 pbc="F F F" Energy_pyscf_og=-310678.4339866272
C       52.01635440      50.14215362      50.11017605
C       50.46622467      49.98119165      49.90361828
C       49.65114664      51.19377937      49.77696621
O       50.22152752      52.39004570      49.68446172
C       48.23401687      51.03927051      49.87373657
C       47.70999239      49.80039292      49.86350509
C       48.40832877      48.60534967      49.74787262
C       49.88744436      48.68344162      49.79967072
O       52.53057582      51.14830583      49.80628559
O       52.66146184      49.00631645      50.46709901
H       51.11447182      52.14840856      49.47044098
H       47.60193597      51.92251984      50.02505028
H       46.57863872      49.83171207      49.90801979
H       47.96962852      47.59429731      49.84100595
H       50.38433062      47.69653869      49.69621541
H       53.58608859      49.37285305      50.53145161
