16
Lattice="100.0 0.0 0.0 0.0 100.0 0.0 0.0 0.0 100.0" Properties=species:S:1:pos:R:3 Energy=-310672.5646808741 Energy_pyscf=-310671.18683584203 pbc="F F F" Energy_pyscf_og=-310672.2622011551
C       51.69063029      50.22633112      50.07020261
C       50.33297309      50.02607863      49.91141793
C       49.62781529      51.22354350      49.85799027
O       50.28814000      52.45693641      49.71829501
C       48.20234952      51.06928959      50.02033472
C       47.58741413      49.79774761      49.90573531
C       48.46681707      48.58553782      49.82600332
C       49.80275357      48.70247298      49.87392083
O       52.28162269      51.35096166      50.07227567
O       52.49064289      49.13035025      50.08712825
H       51.33074913      52.31726025      49.73431839
H       47.58459338      52.03994550      50.15783383
H       46.53072468      49.78453266      49.88709636
H       47.91161517      47.57830836      49.77940246
H       50.62248842      47.87956591      50.10490829
H       53.41140258      49.34426162      50.37729259
