20
Lattice="100.0 0.0 0.0 0.0 100.0 0.0 0.0 0.0 100.0" Properties=species:S:1:pos:R:3 Energy=-322818.35371114494 pbc="F F F"
C       46.30220423      50.28435021      50.17487568
C       47.69316063      50.61912517      50.69811512
O       47.85649740      51.27754120      51.74897777
N       48.67329625      50.17167988      49.91048795
C       50.15977894      50.08605010      50.12635248
C       50.78917309      49.28373971      49.10007165
C       52.18226600      49.18534947      49.03204752
C       52.92451733      49.62518821      50.11061715
O       54.22416556      49.42543984      50.34221106
C       52.26776469      50.44671458      50.96755187
C       50.87154142      50.66904760      51.21011441
H       46.28753118      49.80129074      49.19904651
H       45.64933470      51.23057459      50.24784795
H       45.73771320      49.57443889      50.78048905
H       48.40224594      49.71007087      49.03240394
H       50.23258584      48.70162403      48.35594392
H       52.53624240      48.50178868      48.25102223
H       54.35066530      49.99698103      51.15550932
H       53.11160950      50.64478040      51.67098570
H       50.37783736      51.49821132      51.72998690
