20
Lattice="100.0 0.0 0.0 0.0 100.0 0.0 0.0 0.0 100.0" Properties=species:S:1:pos:R:3 Energy=-322825.8842285934 pbc="F F F"
C       46.21090337      50.38930573      50.06817623
C       47.61205758      50.65222491      50.57997696
O       47.76013825      51.53430293      51.45437238
N       48.48920678      50.04977081      49.80005611
C       49.86941135      49.91127678      49.88167165
C       50.51670153      49.11413763      48.96204717
C       51.88353813      49.09879723      48.87012841
C       52.53880757      49.73330586      49.99068635
O       53.94521186      49.76140072      50.05616462
C       51.90782146      50.28712334      51.09838765
C       50.53059381      50.49335485      51.04184115
H       45.84991282      49.36832658      50.27990380
H       46.38639636      50.36027309      49.01658014
H       45.68983024      51.25116986      50.43090451
H       47.96972130      49.69585062      48.95325630
H       49.87395852      48.83761499      48.09687084
H       52.42107974      48.46569707      48.15813183
H       54.31016976      49.27566573      49.23159528
H       52.53892532      50.60516791      51.90312916
H       49.98849535      50.95186402      51.87232717
