20
Lattice="100.0 0.0 0.0 0.0 100.0 0.0 0.0 0.0 100.0" Properties=species:S:1:pos:R:3 Energy=-322820.8980513922 pbc="F F F"
C       46.27683651      51.03038379      50.09749366
C       47.77508454      50.40468152      50.48276841
O       48.19195196      50.51503550      51.66370757
N       48.74364857      49.99045896      49.50915292
C       50.10492604      49.82572510      49.76944336
C       50.92809963      49.05047048      48.92856696
C       52.26217220      48.91803584      49.05108363
C       52.99827766      49.59404504      50.03416816
O       54.36955389      49.52143504      50.20073067
C       52.21631803      50.43180139      50.77016648
C       50.84067955      50.50118785      50.78529299
H       46.07236454      51.48890520      49.17929649
H       46.18579806      51.85263377      50.90745653
H       45.43995242      50.36968266      50.26081158
H       48.51992970      49.72967927      48.56982128
H       50.38249962      48.24764860      48.33629243
H       52.75454660      48.14736623      48.38603107
H       54.56004758      49.90587023      51.09878396
H       52.59276707      51.10512919      51.52279154
H       50.47429273      51.19517913      51.54428960
