20
Lattice="100.0 0.0 0.0 0.0 100.0 0.0 0.0 0.0 100.0" Properties=species:S:1:pos:R:3 Energy=-322824.85967498453 pbc="F F F"
C       46.20328978      49.96069003      50.33583787
C       47.51724974      50.58603176      50.64464070
O       47.73323832      51.45967525      51.48032367
N       48.49139713      49.85414041      50.00406673
C       49.89583351      49.94913373      49.99345117
C       50.55881176      49.33688747      48.96406825
C       51.95897097      49.07139990      49.00628532
C       52.70743322      49.46816269      50.19159837
O       54.08756975      49.22420984      50.21769984
C       51.99715843      50.37349066      51.16760298
C       50.58202632      50.45028211      51.10655314
H       46.30291836      48.93998795      50.05493147
H       45.99827697      50.50506628      49.30632234
H       45.48546789      50.28257160      51.11418616
H       48.26677958      49.27968930      49.19417157
H       49.96096306      49.11396658      48.04468831
H       52.48440508      48.54032475      48.07743768
H       54.51453211      49.72463139      50.98179379
H       52.52974117      50.75741727      51.95531169
H       49.97562087      51.06639848      51.71817594
