20
Lattice="100.0 0.0 0.0 0.0 100.0 0.0 0.0 0.0 100.0" Properties=species:S:1:pos:R:3 Energy=-322827.85024297814 pbc="F F F"
C       46.03334451      50.49831569      49.88219404
C       47.62854034      50.68002078      50.28004148
O       48.02210680      51.72147010      50.82935089
N       48.49624644      49.63880468      49.89007498
C       49.91217310      49.63590423      49.93097286
C       50.69257502      48.97697645      48.90678164
C       52.05016523      49.08369089      48.86786826
C       52.80248153      49.76910399      49.78895346
O       54.18938323      49.72270377      49.73344043
C       52.13073247      50.31809229      50.76305377
C       50.70759418      50.21430266      50.94641774
H       45.52624271      51.13879669      50.63331250
H       45.62680713      49.51068164      50.07602012
H       45.84822411      50.73865260      48.85050088
H       48.01548140      48.85691356      49.31573787
H       50.19412581      48.27852990      48.17769854
H       52.51262351      48.49361072      48.14732922
H       54.47375729      49.22959456      48.88822669
H       52.72548417      50.76429326      51.62835955
H       50.37329259      50.67148040      51.85267078
