20
Lattice="100.0 0.0 0.0 0.0 100.0 0.0 0.0 0.0 100.0" Properties=species:S:1:pos:R:3 Energy=-322801.5819148678 pbc="F F F"
C       46.47649835      50.32143834      50.08398557
C       47.98228748      50.20034377      50.47890327
O       48.55936333      49.45318635      51.23860823
N       48.83036118      50.92945642      49.56352928
C       50.30719870      50.60487366      49.55281279
C       50.72079658      49.33641415      49.00042490
C       51.85898831      48.67760353      49.28650482
C       52.79389071      49.46309272      49.97395641
O       54.05816289      48.80082194      50.40277966
C       52.48814239      50.67988386      50.57872234
C       51.29922207      51.32609910      50.32699575
H       45.98109528      49.43547983      50.25952029
H       46.42475771      50.56470005      49.04382970
H       45.94183711      51.07058249      50.64650744
H       48.41443923      51.63981555      48.87774523
H       49.80974887      48.85181566      48.47538704
H       52.09729390      47.69991362      48.81938115
H       53.94612379      48.05854824      49.79538691
H       53.20949572      50.75637096      51.52461296
H       50.91452764      52.30008638      50.95318312
