20
Lattice="100.0 0.0 0.0 0.0 100.0 0.0 0.0 0.0 100.0" Properties=species:S:1:pos:R:3 Energy=-322819.2516161174 pbc="F F F"
C       46.28766113      51.29566570      49.98102703
C       47.39629226      50.26183691      49.73089543
O       47.26147179      49.02208096      49.51702105
N       48.57858056      50.91793704      49.72926141
C       49.87255550      50.42759134      49.52354233
C       50.17481151      49.01504558      49.39011135
C       51.53887735      48.62362728      49.44153048
C       52.59157674      49.56121437      49.46206525
O       54.05682671      49.41996895      49.56304763
C       52.22363916      50.94075565      49.43658799
C       50.91029954      51.41881440      49.51822298
H       46.77465201      52.26222879      49.95570525
H       46.13635561      51.22452160      51.06934634
H       45.37782962      51.21226224      49.44606927
H       48.52374184      51.85277825      50.17934203
H       49.31899659      48.34943810      49.57337426
H       51.69961428      47.52641534      49.11946537
H       54.62217038      48.99169581      48.93065366
H       53.00506137      51.75240555      49.47792906
H       50.79524845      52.47358466      49.57341699
