20
Lattice="100.0 0.0 0.0 0.0 100.0 0.0 0.0 0.0 100.0" Properties=species:S:1:pos:R:3 Energy=-322808.01229320705 pbc="F F F"
C       46.15980750      49.94851479      50.15052188
C       47.45123207      50.57129861      50.56399367
O       47.68724237      51.43280251      51.29319528
N       48.44342624      49.77437417      49.91059410
C       49.86640471      49.94848617      49.84877811
C       50.53132932      49.26788631      48.82112344
C       51.86355548      49.04231481      48.88192036
C       52.62032338      49.45114213      50.06479115
O       54.06865567      49.20477525      50.05462869
C       51.98035555      50.35247462      51.03771581
C       50.53605326      50.44615635      50.94384751
H       46.17371342      48.81377553      50.12137870
H       45.89958539      50.38558234      49.28334480
H       45.53138007      50.21224088      50.97968441
H       48.13047006      49.19949410      49.13816542
H       49.82781214      49.06765698      48.02460869
H       52.33944858      48.56719749      48.15881123
H       54.46861993      49.67701288      50.80022551
H       52.52910322      50.80158620      51.97539131
H       49.82905373      51.06121523      51.51899980
