20
Lattice="100.0 0.0 0.0 0.0 100.0 0.0 0.0 0.0 100.0" Properties=species:S:1:pos:R:3 Energy=-322822.9277341847 pbc="F F F"
C       46.35341921      50.33851304      50.37559818
C       47.84505078      50.72480529      49.96112204
O       48.06431351      51.83929691      49.61853093
N       48.79879378      49.67150699      49.96287293
C       50.25652494      49.73084736      49.95576321
C       50.86756702      48.85768357      49.02633049
C       52.23902491      48.87658428      48.91643415
C       53.00616792      49.67362772      49.68833912
O       54.34765448      49.81818433      49.44848315
C       52.46716208      50.49041536      50.58948361
C       51.04152697      50.51679588      50.84554857
H       45.65234552      51.20332839      50.04745011
H       46.19684228      50.38018231      51.45335013
H       46.13389281      49.26329178      50.08594517
H       48.33775967      48.79265815      50.26943880
H       50.24648139      48.18640999      48.41627667
H       52.70670695      48.16070309      48.30767038
H       54.34627382      49.67728139      48.48425023
H       52.93760184      51.17966593      51.20280747
H       50.68850774      51.10404327      51.69232962
