20
Lattice="100.0 0.0 0.0 0.0 100.0 0.0 0.0 0.0 100.0" Properties=species:S:1:pos:R:3 Energy=-322824.7958375923 pbc="F F F"
C       46.20482500      50.69010039      49.94932731
C       47.57285756      50.75965194      50.50721209
O       47.81097505      51.59452105      51.41484373
N       48.32500866      49.81413829      49.83336016
C       49.76216679      49.57231492      49.93630267
C       50.54661370      48.93077487      48.91186053
C       51.93164137      49.07028651      48.92211179
C       52.59147268      49.84568565      49.98090961
O       53.91375407      49.86093249      49.86719029
C       51.81224035      50.38385600      51.06911104
C       50.39659457      50.22697619      51.04403631
H       46.35412891      50.47507356      48.83256320
H       45.56108045      51.47673684      50.22797223
H       45.58454111      49.80057340      50.30646513
H       47.68939957      49.60882946      49.06075414
H       49.98124934      48.40547895      48.10665700
H       52.65963549      48.76191970      48.13435501
H       54.43891955      50.38752672      50.52589524
H       52.36589734      50.76474286      51.89334300
H       49.80910956      50.76021830      51.85195363
