20
Lattice="100.0 0.0 0.0 0.0 100.0 0.0 0.0 0.0 100.0" Properties=species:S:1:pos:R:3 Energy=-322821.189995374 pbc="F F F"
C       46.32795010      51.37776902      50.28467241
C       47.57583497      50.46962878      50.21535449
O       47.54280661      49.36733885      49.67137650
N       48.70568481      50.96801857      50.67263072
C       49.95042610      50.44716240      50.42737457
C       50.37980456      49.04581945      50.31851790
C       51.77728090      48.67775200      50.22582562
C       52.73771478      49.71624770      49.89106202
O       54.13315517      49.53879353      49.81531160
C       52.22725345      51.10213900      49.83191746
C       50.91633496      51.38028058      50.17844934
H       46.46285665      52.42302590      50.76478380
H       45.57735074      50.78192393      50.75067362
H       45.76846246      51.39982053      49.34764035
H       48.69107877      51.90456391      50.99132790
H       49.47700907      48.32516793      50.35269821
H       51.93581991      47.56367988      50.44444048
H       54.42264926      49.07855748      49.00867210
H       52.86228589      51.96823447      49.54452835
H       50.64607237      52.43632012      50.13841531
