20
Lattice="100.0 0.0 0.0 0.0 100.0 0.0 0.0 0.0 100.0" Properties=species:S:1:pos:R:3 Energy=-322823.54456946097 pbc="F F F"
C       46.24049503      50.24554519      50.09042324
C       47.68861298      50.70810154      50.53148949
O       47.91179311      51.14321597      51.70783708
N       48.70645724      50.26148669      49.76579959
C       50.14521401      50.18705982      49.93458987
C       50.75386267      49.44420718      49.04946160
C       52.08958964      49.12307072      48.96756458
C       52.85424073      49.61527721      50.07757366
O       54.17654452      49.52769781      50.15033868
C       52.22111245      50.32225382      51.04270784
C       50.87916966      50.81444933      50.94053038
H       46.04956205      50.47691247      49.01179314
H       45.54506762      50.76430767      50.77391139
H       45.99141523      49.17262425      50.16856506
H       48.56879199      49.93453109      48.80895568
H       50.09425527      49.00033633      48.34881588
H       52.46772729      48.51687499      48.11120213
H       54.45493238      49.97033340      50.96388855
H       52.82519017      50.60051501      51.88879787
H       50.47276081      51.48312501      51.62569732
