20
Lattice="100.0 0.0 0.0 0.0 100.0 0.0 0.0 0.0 100.0" Properties=species:S:1:pos:R:3 Energy=-322821.5045505257 pbc="F F F"
C       46.28869174      50.68042851      49.97504891
C       47.62962634      50.60390046      50.61222041
O       48.04009913      51.00524279      51.70707575
N       48.62807874      50.15797962      49.64928885
C       50.06957851      49.96290022      49.92041098
C       50.72799819      49.30425196      48.96868042
C       52.08984203      49.05709192      49.07526759
C       52.71938395      49.72774963      50.06529102
O       54.15373851      49.58276289      50.10058861
C       52.05906780      50.50223296      50.90366537
C       50.72993642      50.53485002      50.97013556
H       45.78643581      51.64816939      50.16497695
H       45.57085459      49.97567918      50.55715044
H       46.20657166      50.36021347      48.92239011
H       48.38569874      49.59718768      48.82342894
H       50.08878947      48.89903375      48.23140760
H       52.52791363      48.35183061      48.37760823
H       54.42914541      50.21893031      50.77358963
H       52.66750560      51.03079958      51.61138477
H       50.14693938      51.12403188      51.76859240
