20
Lattice="100.0 0.0 0.0 0.0 100.0 0.0 0.0 0.0 100.0" Properties=species:S:1:pos:R:3 Energy=-322815.8555517488 pbc="F F F"
C       46.49125749      50.84716326      50.18969988
C       47.87839159      50.34746670      49.68226648
O       47.98574806      49.63771342      48.71215528
N       48.91638467      50.80890691      50.37302905
C       50.27917826      50.22028686      50.22912989
C       50.72309365      48.88420926      50.33440649
C       51.98382196      48.69269361      49.89219013
C       52.89873090      49.63419898      49.56051807
O       54.16329103      49.20878078      49.21024907
C       52.55549858      50.98113839      49.66784191
C       51.21033138      51.21462018      49.90861132
H       46.44704036      50.98857971      51.28784472
H       45.81292346      49.98130179      49.88385033
H       46.27393774      51.79546689      49.66292846
H       48.91786039      51.37760406      51.22619816
H       50.08369689      48.03650367      50.43157350
H       52.32181231      47.66620590      49.90676154
H       54.18707654      48.22582708      48.95327870
H       53.31812213      51.62750602      49.69954944
H       51.17742057      52.33379410      50.03648465
