20
Lattice="100.0 0.0 0.0 0.0 100.0 0.0 0.0 0.0 100.0" Properties=species:S:1:pos:R:3 Energy=-322819.30501534755 pbc="F F F"
C       46.58890956      51.10512097      49.97609298
C       47.78721415      50.17731781      49.92143476
O       47.74277430      48.92758634      49.84261058
N       48.99483653      50.90747128      49.87010874
C       50.25799259      50.47785337      49.71662663
C       50.46785451      49.12754356      49.60187891
C       51.88835901      48.66457657      49.68052738
C       52.89411532      49.61223203      49.70216480
O       54.22244099      49.13920704      49.64872722
C       52.64662400      50.99038846      49.59573700
C       51.30980523      51.38588843      49.71668860
H       46.84521836      51.59893011      49.12309082
H       46.69261056      51.79531147      50.87690918
H       45.66447417      50.64174942      49.94407587
H       48.86710179      51.94548677      49.81731955
H       49.66262459      48.47809210      49.90768995
H       52.25979535      47.62890623      49.54877564
H       54.33552583      48.30765295      50.03408303
H       53.50972014      51.71940893      49.51042795
H       50.86622423      52.37109377      49.56536597
