20
Lattice="100.0 0.0 0.0 0.0 100.0 0.0 0.0 0.0 100.0" Properties=species:S:1:pos:R:3 Energy=-322816.7894097838 pbc="F F F"
C       46.16171308      50.41048666      50.04269439
C       47.49488011      50.70443129      50.39961401
O       47.85748182      51.72830151      50.94505947
N       48.42766604      49.74208886      50.03714402
C       49.86879825      49.73284188      50.05002616
C       50.54697169      48.89647050      49.16824958
C       51.90407579      48.99955137      48.89744414
C       52.68442175      49.69786930      49.88599828
O       54.10233454      49.79248887      49.82580282
C       52.07062397      50.35093376      51.04427052
C       50.61404839      50.39519272      51.06786803
H       45.38265569      51.08710162      50.52279115
H       45.90292418      49.31265989      50.17193559
H       46.01333447      50.61482214      48.99458390
H       47.93975798      48.81928804      49.78157977
H       49.81851439      48.27169849      48.58437517
H       52.42072152      48.33930583      48.06111106
H       54.61734431      49.33212413      49.07259903
H       52.50955074      51.03816780      51.93888894
H       50.08303403      50.91302161      51.78148023
