20
Lattice="100.0 0.0 0.0 0.0 100.0 0.0 0.0 0.0 100.0" Properties=species:S:1:pos:R:3 Energy=-322815.65413740306 pbc="F F F"
C       46.32401074      50.42400187      50.19030087
C       47.76435008      50.78024150      50.55101669
O       48.04477095      51.44136311      51.54721608
N       48.61229914      50.14459881      49.76897339
C       49.95311970      50.07496670      49.92850950
C       50.62414185      49.32386733      48.86692865
C       52.02464103      49.15016771      48.97571002
C       52.74796012      49.81475944      50.03510217
O       54.07803998      49.62272214      50.19420751
C       52.11800290      50.53648964      51.11812936
C       50.64066114      50.54833768      51.06160000
H       45.64761528      50.70197997      50.90812002
H       46.19256957      49.43497012      49.99235002
H       45.87576256      51.10467263      49.40104668
H       48.13629689      49.90929416      48.88581139
H       50.01144004      48.55863689      48.18701983
H       52.58716798      48.65193280      48.21134959
H       54.35238472      49.53312399      51.12824360
H       52.68095524      51.20591792      51.81298017
H       49.94467848      50.98239675      51.74895299
