20
Lattice="100.0 0.0 0.0 0.0 100.0 0.0 0.0 0.0 100.0" Properties=species:S:1:pos:R:3 Energy=-322826.31216965686 pbc="F F F"
C       46.25223276      50.57185854      49.89531749
C       47.67955713      50.77959469      50.41918682
O       47.97665173      51.51642891      51.37785160
N       48.62356194      50.10895945      49.76724376
C       49.95903748      50.31872057      49.82323506
C       50.58357051      49.55846623      48.86744424
C       51.94153109      49.15736258      48.94182364
C       52.76983884      49.84180207      49.93464713
O       54.06857172      49.68383507      49.88494284
C       52.03337121      50.65513539      50.94291469
C       50.64033490      50.87250362      50.90481982
H       45.58265978      50.47743952      50.83839647
H       46.18201034      49.61590266      49.32191889
H       46.04565741      51.61344246      49.42579876
H       48.31401132      49.56563868      48.91756647
H       49.90187433      49.13058281      48.14889391
H       52.30417035      48.38655754      48.30228118
H       54.41734022      50.40015253      50.44035674
H       52.58725731      51.08098265      51.85110609
H       50.08025554      51.39672570      51.72023354
