20
Lattice="100.0 0.0 0.0 0.0 100.0 0.0 0.0 0.0 100.0" Properties=species:S:1:pos:R:3 Energy=-322823.6246828657 pbc="F F F"
C       46.27997751      50.50481252      50.30138555
C       47.80798297      50.39814865      50.54099758
O       48.22115178      50.17639657      51.69267718
N       48.60315057      50.45418694      49.42329629
C       50.05746231      50.09089453      49.60410026
C       50.71134038      49.11152118      48.87986052
C       52.03772233      48.96142329      49.06978571
C       52.77173492      49.47193834      50.18008977
O       54.07113386      49.18230770      50.37303229
C       52.11908766      50.37883031      50.91845512
C       50.82281706      50.67089707      50.65373104
H       45.92573760      50.75996300      49.36395081
H       45.99707870      51.37929721      50.95669654
H       45.66912602      49.57263573      50.55854100
H       48.16667110      50.72356956      48.55036920
H       50.12563989      48.52504466      48.20583964
H       52.71571093      48.42092325      48.44316995
H       54.33087398      48.46849731      49.73800124
H       52.65204614      50.71496589      51.79416036
H       50.45813150      51.57907675      51.18998135
