20
Lattice="100.0 0.0 0.0 0.0 100.0 0.0 0.0 0.0 100.0" Properties=species:S:1:pos:R:3 Energy=-322812.1130999952 pbc="F F F"
C       46.10714306      50.76289765      50.29270052
C       47.55939877      50.60950621      50.68197770
O       47.85883449      50.48939821      51.86454275
N       48.55741354      50.55179305      49.65718600
C       50.03456034      50.30286803      49.92152957
C       50.72059274      49.40532247      49.05683156
C       52.02440034      49.02870622      49.26907486
C       52.86238892      49.63610003      50.26302814
O       54.21112831      49.51251672      50.34183172
C       52.22430660      50.59930935      51.02801395
C       50.82985477      50.86700743      50.79359226
H       45.60309323      49.79350122      50.10812199
H       45.82172946      51.23172254      49.27576937
H       45.58990415      51.30454054      51.09438534
H       48.27886348      50.86051009      48.75853857
H       50.19827696      49.13693831      48.13545725
H       52.26615142      48.36926025      48.48320756
H       54.41009585      48.91235509      49.66384736
H       52.67630038      51.24901217      51.60057086
H       50.53118699      51.63073975      51.42845221
