20
Lattice="100.0 0.0 0.0 0.0 100.0 0.0 0.0 0.0 100.0" Properties=species:S:1:pos:R:3 Energy=-322827.1683914365 pbc="F F F"
C       46.30285101      51.16523679      49.84584880
C       47.53845991      50.57201464      50.35200010
O       47.46635630      49.91910880      51.39431144
N       48.66334768      50.63459237      49.46021862
C       50.00847188      50.38655704      49.81596079
C       50.56337117      49.21977779      49.19170780
C       51.90482632      48.83415214      49.33244509
C       52.84176578      49.74509290      49.84093712
O       54.17816579      49.58628603      49.82717906
C       52.30494485      50.88675745      50.44144780
C       50.96805646      51.24934642      50.52777963
H       46.36912046      52.18829805      49.42884127
H       45.51345537      51.05119506      50.67379560
H       45.83066139      50.61342012      48.98533000
H       48.50216746      51.16263906      48.60568856
H       49.87726690      48.59992711      48.71770998
H       52.17003102      47.81170195      48.96424122
H       54.48654463      50.45036200      50.22438160
H       52.94008080      51.57747113      50.99264272
H       50.84704734      52.18550673      51.00203035
