20
Lattice="100.0 0.0 0.0 0.0 100.0 0.0 0.0 0.0 100.0" Properties=species:S:1:pos:R:3 Energy=-322818.43670869176 pbc="F F F"
C       46.31828024      50.80504829      50.34614191
C       47.82283617      50.76504178      49.76514769
O       48.27352222      51.45072745      48.86341972
N       48.67142508      49.92295724      50.41949912
C       50.10801371      49.88916666      50.05815065
C       50.76772395      48.91635422      49.22638149
C       52.11487357      48.81592259      48.96142053
C       52.90223601      49.76956498      49.57369916
O       54.26315623      49.70558009      49.54746105
C       52.27603466      50.97844085      50.11944796
C       50.89039497      51.02884563      50.37172692
H       45.73036876      49.89706816      50.33326515
H       45.70404969      51.65079391      49.98078307
H       46.52947867      50.84570274      51.44681010
H       48.39367233      49.17553398      50.98369793
H       50.19020857      48.10397944      48.77664311
H       52.58548269      48.01237938      48.55318990
H       54.29595031      49.04280752      48.89354688
H       52.85364554      51.88158706      50.22842757
H       50.42956034      51.98762062      50.83607346
