20
Lattice="100.0 0.0 0.0 0.0 100.0 0.0 0.0 0.0 100.0" Properties=species:S:1:pos:R:3 Energy=-322816.2752481712 pbc="F F F"
C       46.28416885      50.37845100      49.93545350
C       47.67853067      50.53802642      50.55752897
O       47.90945836      50.61266212      51.73561737
N       48.64133078      50.69241706      49.56816598
C       50.09560997      50.47836224      49.78389023
C       50.64118318      49.35670605      49.01170600
C       51.99177882      49.06793149      49.10017870
C       52.82314695      49.65314546      50.09594968
O       54.19828939      49.26621065      50.02201874
C       52.31356489      50.60338033      50.96021711
C       50.96569687      51.10607788      50.73913663
H       46.08644863      49.63517435      49.17137539
H       45.93855851      51.19224740      49.23156608
H       45.40458139      50.28967052      50.57351884
H       48.26597609      50.63978993      48.61705108
H       50.13221732      48.74377281      48.26438263
H       52.13932855      48.12113001      48.65191790
H       54.59541861      49.55369507      50.91327461
H       53.08272783      50.99637355      51.64446953
H       50.48711561      51.87886999      51.57779770
