20
Lattice="100.0 0.0 0.0 0.0 100.0 0.0 0.0 0.0 100.0" Properties=species:S:1:pos:R:3 Energy=-322827.5859406456 pbc="F F F"
C       46.51830860      51.18207705      50.10849646
C       47.59758131      50.26554035      50.22266761
O       47.53242352      49.11259571      50.66785254
N       48.81915874      50.96446990      50.04559335
C       50.14619793      50.40874630      49.84036923
C       50.36847268      49.04130427      49.71317362
C       51.74531962      48.68396178      49.68252610
C       52.85447902      49.64187543      49.96893324
O       54.16776908      49.34579748      49.96222873
C       52.51071864      50.98638173      50.15296209
C       51.16941040      51.40071014      50.04668997
H       46.72941103      52.03005272      50.89128231
H       45.53467136      50.69083919      50.34374033
H       46.53371602      51.60239907      49.10871769
H       48.66528749      51.96477733      49.76825483
H       49.52968027      48.27229047      49.62564228
H       51.94712736      47.61071667      49.57677527
H       54.46532864      48.48498830      49.50164506
H       53.29346169      51.62538667      50.65715266
H       50.81515970      52.38928333      50.20021875
