20
Lattice="100.0 0.0 0.0 0.0 100.0 0.0 0.0 0.0 100.0" Properties=species:S:1:pos:R:3 Energy=-322816.24302023277 pbc="F F F"
C       46.27451673      50.36202923      49.90511430
C       47.67374588      50.52334604      50.53156189
O       47.90679350      50.59979816      51.70888915
N       48.63535622      50.67738664      49.53076309
C       50.08557062      50.46496819      49.75986138
C       50.64822358      49.34146852      48.97774277
C       51.99162664      49.04893337      49.06711803
C       52.81831056      49.63663703      50.06183521
O       54.19563086      49.24785320      49.99029771
C       52.30686662      50.58525636      50.94250187
C       50.96621471      51.10392159      50.70444840
H       46.09695061      49.60779834      49.11417696
H       45.94354422      51.18947770      49.21552274
H       45.40435087      50.27927929      50.54632056
H       48.28306620      50.59519401      48.57432046
H       50.14975512      48.67777513      48.29111085
H       52.13695900      48.11084898      48.59932885
H       54.59564913      49.54862482      50.86634149
H       53.10273059      50.98791786      51.63043643
H       50.48248818      51.88915102      51.52958865
