20
Lattice="100.0 0.0 0.0 0.0 100.0 0.0 0.0 0.0 100.0" Properties=species:S:1:pos:R:3 Energy=-322819.9700144082 pbc="F F F"
C       46.16706395      49.97640126      49.95175289
C       47.54042136      50.50877958      50.41645566
O       47.71913153      51.59096053      51.03492464
N       48.55987388      49.61776245      50.05189577
C       49.91892438      49.53960923      50.13164934
C       50.53100186      48.79383135      49.12334618
C       51.89587006      48.90180465      48.94858076
C       52.73138691      49.53179431      49.93647748
O       54.10607800      49.33982378      49.69375234
C       52.12296612      50.29185878      51.07239514
C       50.71434923      50.38549989      51.09450334
H       46.07014723      48.97116013      49.97137116
H       46.12304132      50.29932497      48.85131299
H       45.42915519      50.48175975      50.54718928
H       48.25243610      48.97366838      49.34335600
H       49.75733986      48.44153506      48.47683332
H       52.45992388      48.40903947      48.21715693
H       54.57084481      50.17977443      50.00651186
H       52.76240766      51.04735061      51.71703244
H       50.10110376      51.00643900      51.78284307
