20
Lattice="100.0 0.0 0.0 0.0 100.0 0.0 0.0 0.0 100.0" Properties=species:S:1:pos:R:3 Energy=-322816.7866243276 pbc="F F F"
C       46.44281359      50.87445106      50.32251642
C       47.69462453      50.40472638      49.71413040
O       47.62669792      50.02641680      48.55349494
N       48.78240660      50.64043245      50.50689805
C       50.12302062      50.29069717      50.16140093
C       50.63816397      48.89130578      50.18745048
C       52.00568615      48.59543135      49.86828152
C       53.01378227      49.66490088      49.57710551
O       54.32642488      49.36569596      49.15170488
C       52.57712721      51.01815070      49.71785375
C       51.21234608      51.22448633      50.04269777
H       46.39456433      50.38619978      51.34301965
H       45.57656623      50.55860085      49.72035840
H       46.45704327      52.06847878      50.35334663
H       48.62477856      50.91765451      51.44650506
H       50.04632608      48.03829445      50.63429349
H       52.25172735      47.61393619      50.06705921
H       54.42343377      48.43409672      48.91972270
H       53.30952174      51.76781433      49.58087434
H       51.09596990      52.38606381      50.11415195
