20
Lattice="100.0 0.0 0.0 0.0 100.0 0.0 0.0 0.0 100.0" Properties=species:S:1:pos:R:3 Energy=-322826.0671244424 pbc="F F F"
C       46.41900247      51.39967585      49.91907531
C       47.44843237      50.25061462      49.80155317
O       47.34354661      49.01912196      49.67927080
N       48.69735457      50.79436327      49.77197494
C       49.95882299      50.35285890      49.66851913
C       50.41720981      49.00293695      49.74671438
C       51.76155743      48.66319825      49.56970473
C       52.83901250      49.63149592      49.45936119
O       54.17033929      49.26278293      49.43806825
C       52.31485921      50.99086882      49.59288291
C       50.90570405      51.34869724      49.60598994
H       46.63620424      52.08482602      49.00050823
H       46.43510435      51.73175291      50.99949177
H       45.42293210      50.88161808      49.82055917
H       48.76532271      51.80000163      49.62599018
H       49.65915167      48.30909855      50.04554202
H       52.00546403      47.61307893      49.57114024
H       54.57706790      50.14401625      49.24381592
H       53.08469829      51.81448123      49.61059161
H       50.69618578      52.38692107      49.58863743
