20
Lattice="100.0 0.0 0.0 0.0 100.0 0.0 0.0 0.0 100.0" Properties=species:S:1:pos:R:3 Energy=-322815.88163966086 pbc="F F F"
C       46.11508496      50.77070235      50.26402287
C       47.57432732      50.62243756      50.65931056
O       47.86772161      50.51391565      51.84701205
N       48.55362205      50.56152469      49.65339329
C       50.04648095      50.31766880      49.89758090
C       50.72201731      49.40470138      49.03714880
C       52.02255827      49.03523179      49.23869727
C       52.86737267      49.65354674      50.24769928
O       54.21564091      49.52257584      50.32316248
C       52.22984703      50.62789213      51.00430079
C       50.84065464      50.86954594      50.78784933
H       45.58743599      49.82201943      50.13993228
H       45.80343608      51.21508289      49.28153839
H       45.60950951      51.29630548      51.04788324
H       48.27435447      50.87027024      48.70371969
H       50.18201250      49.12438870      48.15298795
H       52.26778886      48.34071251      48.43267735
H       54.41256401      48.89971189      49.63306816
H       52.68154733      51.31816756      51.54097356
H       50.54654940      51.65928749      51.39787919
