20
Lattice="100.0 0.0 0.0 0.0 100.0 0.0 0.0 0.0 100.0" Properties=species:S:1:pos:R:3 Energy=-322816.40508733055 pbc="F F F"
C       46.14687174      50.77300473      50.23487949
C       47.18040728      49.95453711      49.61117092
O       47.04548618      48.74891771      49.36714888
N       48.43847399      50.74111645      49.34156730
C       49.77312640      50.38419520      49.33449992
C       50.13632190      49.00688317      49.44864935
C       51.45788930      48.57202974      49.46725165
C       52.55159197      49.40797934      49.37474810
O       53.73105749      48.71643855      49.43099531
C       52.29580264      50.81948610      49.57444416
C       50.93147568      51.37867186      49.49369356
H       45.49128288      50.07606125      50.80746228
H       45.54599288      51.13671493      49.30869709
H       46.61466474      51.57359631      50.73420925
H       48.17805519      51.62252985      49.75751397
H       49.39734148      48.23197133      49.57734846
H       51.67162753      47.52473211      49.75926377
H       54.50871712      49.34160313      49.19253772
H       53.12389014      51.46108611      49.95996652
H       50.68297566      52.47526789      49.51396058
