20
Lattice="100.0 0.0 0.0 0.0 100.0 0.0 0.0 0.0 100.0" Properties=species:S:1:pos:R:3 Energy=-322821.767588436 pbc="F F F"
C       46.32860020      50.61630303      50.17213098
C       47.78846884      50.66930099      50.79400401
O       48.05397816      51.12026127      51.92001490
N       48.70778904      50.47518616      49.75012191
C       50.08191340      50.37067012      49.92770483
C       50.70989954      49.61951522      48.98003456
C       52.09875306      49.15065036      49.15384000
C       52.72960088      49.81682029      50.25462637
O       54.07339592      49.64937158      50.32333599
C       52.12000665      50.60357145      51.14973372
C       50.74730441      50.79259840      50.99397826
H       46.29346851      50.66377721      49.08971348
H       45.66387143      51.47756760      50.53851178
H       45.77482830      49.61938265      50.62225628
H       48.36025765      50.09215724      48.90298025
H       50.16567652      49.09524904      48.07998510
H       52.63390957      48.52243240      48.42289930
H       54.33612857      50.00404603      51.21483594
H       52.69183979      51.05184470      51.91646551
H       50.11243991      51.39516953      51.62325522
