20
Lattice="100.0 0.0 0.0 0.0 100.0 0.0 0.0 0.0 100.0" Properties=species:S:1:pos:R:3 Energy=-322820.33805881825 pbc="F F F"
C       46.33862975      51.11874077      50.37067808
C       47.67566108      50.75202477      50.69494788
O       48.01784156      50.66968721      51.89539320
N       48.53770067      50.22887469      49.74353490
C       49.95445411      50.05814635      49.94884451
C       50.68461528      49.19681053      49.09962047
C       52.14070865      48.92668905      49.20452231
C       52.84391628      49.83127550      50.15432632
O       54.17014165      49.78309062      50.50357823
C       52.06292827      50.59345536      51.06834180
C       50.64826575      50.69435330      51.03349947
H       46.27142259      51.50108979      49.31864174
H       45.95823212      51.81011846      51.03027401
H       45.75712986      50.14326122      50.35985354
H       48.07570489      50.01833738      48.86779627
H       50.22822768      48.72267291      48.10460680
H       52.61123006      48.18988154      48.63962728
H       54.24287014      50.05001069      51.44108943
H       52.61610308      51.11165886      51.86782525
H       50.01819873      51.19194958      51.83194148
