20
Lattice="100.0 0.0 0.0 0.0 100.0 0.0 0.0 0.0 100.0" Properties=species:S:1:pos:R:3 Energy=-322830.02510209294 pbc="F F F"
C       46.34888788      50.45187835      50.05703230
C       47.67335595      50.66801894      50.60578902
O       47.89439008      51.32772839      51.59683349
N       48.73482529      50.10796478      49.83225406
C       50.03589925      49.90072703      50.11085443
C       50.65774101      49.09069584      49.12470151
C       52.09326797      49.05708640      49.03179640
C       52.84975698      49.65643106      50.05692774
O       54.24587408      49.70807206      50.03525792
C       52.15206646      50.38484833      51.10522123
C       50.75648743      50.59624342      51.10722158
H       45.50447580      50.47137291      50.75324192
H       46.40250481      49.69435170      49.27207719
H       46.21926045      51.45032675      49.56117447
H       48.34781583      49.78311719      48.92428632
H       49.91597789      48.54967325      48.53465878
H       52.57123620      48.62843523      48.12609536
H       54.49552420      50.12029171      50.92640544
H       52.82853726      51.08082874      51.68380603
H       50.22164262      51.10916594      51.87390464
