20
Lattice="100.0 0.0 0.0 0.0 100.0 0.0 0.0 0.0 100.0" Properties=species:S:1:pos:R:3 Energy=-322823.5003684824 pbc="F F F"
C       46.41433544      50.75059513      50.19635580
C       47.91595270      50.56287802      50.59245394
O       48.27865406      50.17930237      51.68830537
N       48.80446668      50.55938982      49.49680569
C       50.23986636      50.24320321      49.79880729
C       50.83086429      49.24889051      49.04633965
C       52.13511166      48.87370253      49.23873682
C       52.89823738      49.66695674      50.08245715
O       54.20286751      49.34179141      50.29768966
C       52.30133573      50.67820218      50.91769744
C       51.00827370      51.01098018      50.77521275
H       45.87792255      49.94847449      49.67708067
H       46.14237834      51.50769672      49.50505279
H       45.79713249      50.87277979      51.13416131
H       48.73113253      51.14456787      48.73380999
H       50.32021318      48.64048240      48.29348768
H       52.71893710      48.21213732      48.66525564
H       54.15427970      48.36800370      50.37858872
H       52.87554923      51.25288205      51.70651232
H       50.53313998      51.78786268      51.35413017
