20
Lattice="100.0 0.0 0.0 0.0 100.0 0.0 0.0 0.0 100.0" Properties=species:S:1:pos:R:3 Energy=-322816.66563716705 pbc="F F F"
C       46.22163446      50.46618734      50.11035677
C       47.71492534      50.32742778      50.63939273
O       48.10788621      50.21892115      51.82838152
N       48.63134065      50.61697403      49.59772573
C       50.00001737      50.36833303      49.70745920
C       50.67335355      49.40661611      48.93571187
C       51.93358008      48.93915299      49.13645821
C       52.70793353      49.59269165      50.05017861
O       54.00661340      49.02237283      50.48063392
C       52.23002983      50.64620880      50.87949221
C       50.89588766      50.99877916      50.69723008
H       45.66304367      49.58699929      50.71798112
H       46.24373481      50.16350657      49.00118601
H       45.75542227      51.49511503      50.21299225
H       48.32292319      51.11829350      48.79087940
H       50.11880659      48.77120796      48.17161848
H       52.29195835      48.14315911      48.54775722
H       54.33695633      48.72336628      49.62570515
H       52.99714196      50.99517371      51.60968412
H       50.66290434      51.85684089      51.36982089
