20
Lattice="100.0 0.0 0.0 0.0 100.0 0.0 0.0 0.0 100.0" Properties=species:S:1:pos:R:3 Energy=-322812.1386087222 pbc="F F F"
C       46.29143419      50.82580514      50.02864245
C       47.59289016      50.41368529      50.71754372
O       47.62989410      50.23247362      51.89715276
N       48.57573544      50.11383733      49.72610017
C       50.00257033      49.92223797      49.79689718
C       50.70771295      49.04027518      48.95759734
C       52.02908797      48.81937380      49.23459488
C       52.76910454      49.62249475      50.11342744
O       54.07376393      49.33619243      50.25093345
C       52.18484582      50.56406121      50.85176234
C       50.85625266      50.66324547      50.76996971
H       46.18326203      50.53890099      48.96593044
H       46.16343510      51.94549703      49.94356973
H       45.41197191      50.37103195      50.67562579
H       48.27830369      50.18864574      48.73940826
H       50.43883959      48.43078178      48.10284724
H       52.56453594      48.05450297      48.66702833
H       54.58802809      48.53702470      49.96527819
H       52.79501537      51.03842752      51.72852722
H       50.44193703      51.63767294      51.18522379
