20
Lattice="100.0 0.0 0.0 0.0 100.0 0.0 0.0 0.0 100.0" Properties=species:S:1:pos:R:3 Energy=-322817.6043056595 pbc="F F F"
C       46.26417113      50.75322892      50.07924826
C       47.70533370      50.50590475      50.67154289
O       47.97007452      50.27507259      51.88846286
N       48.71004427      50.53711272      49.64718097
C       50.14690470      50.21401300      49.76686148
C       50.86080388      49.23514274      48.97242526
C       52.18115272      48.98253659      49.19241408
C       52.97980150      49.61531219      50.16868813
O       54.27878432      49.29326901      50.32543147
C       52.27170542      50.60737282      50.76588252
C       50.85859816      50.80583599      50.77073636
H       46.14658724      50.17245602      49.14692889
H       45.78469669      51.77297340      49.77858744
H       45.57332633      50.30072814      50.85683935
H       48.49907802      50.92388633      48.65724860
H       50.51428893      48.75704311      48.11153714
H       52.75980455      48.22702660      48.59978334
H       54.42667367      48.64704780      49.55337001
H       52.85397771      51.16763100      51.44604683
H       50.44984772      51.53719708      51.41303726
