20
Lattice="100.0 0.0 0.0 0.0 100.0 0.0 0.0 0.0 100.0" Properties=species:S:1:pos:R:3 Energy=-322824.8738177391 pbc="F F F"
C       46.10788586      50.47308073      50.47628375
C       47.60715325      50.68618366      50.45862267
O       48.09176946      51.59936827      51.10645950
N       48.45040675      49.70390257      49.80891334
C       49.82548112      49.59484696      49.85379302
C       50.70448095      49.13517307      48.82284949
C       52.06737688      49.11094347      48.99788610
C       52.69866341      49.68767594      50.02894549
O       54.00200168      49.72571713      50.19033693
C       51.89589165      50.17979931      51.07018731
C       50.50345381      50.04789458      51.03040661
H       45.66576202      49.55140914      50.10706021
H       45.58909447      51.38546902      50.18098458
H       45.97468080      50.46919488      51.59445584
H       47.95403075      48.93156388      49.42493718
H       50.46893828      48.40063173      48.01226147
H       52.75424690      48.54970589      48.35360464
H       54.41090553      49.59909064      49.34064952
H       52.28306979      50.74819138      51.83531014
H       50.07165837      50.51352062      51.98773853
