20
Lattice="100.0 0.0 0.0 0.0 100.0 0.0 0.0 0.0 100.0" Properties=species:S:1:pos:R:3 Energy=-322822.13892388856 pbc="F F F"
C       46.09619506      50.57117388      50.51628169
C       47.57917221      50.16084894      50.43632629
O       47.83705802      49.12400792      51.04667018
N       48.51516868      50.95339079      49.81307040
C       49.89027640      50.37336709      49.81600556
C       50.27105773      49.08750099      49.26601845
C       51.60929547      48.65074279      49.54695110
C       52.54850099      49.43134429      50.12718132
O       53.65691915      48.86426528      50.58707010
C       52.19812922      50.77028657      50.42007967
C       50.92868669      51.22264325      50.34237688
H       45.67491033      49.98316228      49.73472678
H       46.01613033      51.66422351      50.36097602
H       45.67845811      50.25357641      51.49657851
H       48.36236228      51.98573386      49.61092063
H       49.63390489      48.47279258      48.50342149
H       51.99682201      47.74562457      49.12216160
H       54.32508967      49.47621649      50.92520276
H       52.88241155      51.31986703      51.10239289
H       50.64276808      52.25437543      50.51066968
