20
Lattice="100.0 0.0 0.0 0.0 100.0 0.0 0.0 0.0 100.0" Properties=species:S:1:pos:R:3 Energy=-322829.60896700266 pbc="F F F"
C       46.25904503      50.43756832      50.32407950
C       47.72965350      50.70003567      50.09675294
O       48.18826787      51.79578545      49.82155065
N       48.48603803      49.57359766      50.21775144
C       49.96163823      49.73000490      50.01038094
C       50.54993792      48.84915963      49.02702374
C       51.94116831      48.91424327      48.99694436
C       52.70580286      49.71279343      49.81256656
O       54.04744229      49.66751757      49.67144528
C       52.13603711      50.63826150      50.69836609
C       50.73447156      50.59768091      50.90482144
H       45.98283066      49.45414125      49.94802208
H       45.77958699      51.28025952      49.78909841
H       46.17676598      50.53014130      51.41083952
H       48.05793596      48.64369894      50.28982006
H       49.95090622      48.20421455      48.37359495
H       52.49483794      48.45968186      48.21971521
H       54.22041301      49.22664703      48.79776902
H       52.80281805      51.22926549      51.22948232
H       50.46230736      51.11178487      51.78028479
