20
Lattice="100.0 0.0 0.0 0.0 100.0 0.0 0.0 0.0 100.0" Properties=species:S:1:pos:R:3 Energy=-322821.67081035813 pbc="F F F"
C       46.14879056      50.19037039      50.09721828
C       47.53771351      50.75881778      50.38132455
O       47.96158177      51.47515202      51.31310054
N       48.52480066      50.20350916      49.68215520
C       49.90317882      50.24787237      49.80693333
C       50.56506002      49.47813773      48.90816124
C       51.88562163      49.28102826      48.87834119
C       52.63826996      49.85677561      49.90527114
O       53.90625500      49.32165556      50.01735371
C       51.96951760      50.52333203      50.99381350
C       50.54598707      50.71940939      50.90247780
H       46.10797859      49.27277426      49.48455978
H       45.66576493      50.95563882      49.55774793
H       45.55949055      49.98557923      50.99087133
H       48.37146373      49.62555955      48.82795266
H       49.79221770      49.01132215      48.25570289
H       52.33037641      48.52484798      48.14531704
H       54.44050945      49.66764877      50.78104759
H       52.54297338      50.93760935      51.85468296
H       50.06025226      51.31721274      51.66469510
