20
Lattice="100.0 0.0 0.0 0.0 100.0 0.0 0.0 0.0 100.0" Properties=species:S:1:pos:R:3 Energy=-322825.56221302354 pbc="F F F"
C       46.24777774      50.62311372      50.27243864
C       47.82436308      50.70547589      50.71284858
O       48.18835886      50.93789001      51.91161456
N       48.66173497      50.41550287      49.62957695
C       50.06878996      50.23982954      49.86321815
C       50.84397484      49.41667699      48.94067909
C       52.22246274      49.19545569      49.13142871
C       52.78739689      49.72636180      50.26951248
O       54.15599569      49.47800107      50.34412957
C       52.11305021      50.56942326      51.11109253
C       50.73534303      50.71112040      51.00437064
H       45.96239447      51.43646851      49.67153732
H       45.56722163      50.84995067      51.12181398
H       45.70358534      49.77695637      49.70068570
H       48.34321353      49.83290631      48.84776344
H       50.48017378      48.97137682      47.99687204
H       52.77563354      48.52508780      48.47997800
H       54.43277837      49.55504830      51.24947282
H       52.63172559      51.05827014      52.00312796
H       50.38757022      51.47491220      51.68555540
