20
Lattice="100.0 0.0 0.0 0.0 100.0 0.0 0.0 0.0 100.0" Properties=species:S:1:pos:R:3 Energy=-322811.5718689661 pbc="F F F"
C       46.59066220      50.78916066      49.53823750
C       47.87662291      50.89827089      50.37168542
O       47.87220211      51.08591649      51.54909232
N       48.92970294      50.42852555      49.63355919
C       50.27450411      50.33698520      49.91340247
C       50.79710575      49.35044667      49.12243778
C       52.15303688      49.27225710      48.92895262
C       53.01097299      50.01418081      49.81890387
O       54.31652001      49.71254773      49.66112699
C       52.45743205      50.92032233      50.74582633
C       51.08083598      51.02024356      50.76208413
H       46.74455131      51.21754621      48.45090768
H       45.68347999      51.35988394      49.90226724
H       46.22477129      49.70783679      49.39823002
H       48.54378104      49.90061026      48.83592589
H       50.07428004      48.85817282      48.46921688
H       52.45152429      48.37536673      48.50902949
H       54.17673938      48.85515023      49.26603624
H       53.08027781      51.60745102      51.36433118
H       50.48755843      51.62463327      51.34712932
