20
Lattice="100.0 0.0 0.0 0.0 100.0 0.0 0.0 0.0 100.0" Properties=species:S:1:pos:R:3 Energy=-322824.5205205145 pbc="F F F"
C       46.26647888      49.93473034      50.57047132
C       47.64692399      50.53921363      50.55746293
O       47.91191325      51.42096695      51.32928986
N       48.47906956      49.95150484      49.68855089
C       49.77317883      49.90525244      49.89665000
C       50.52994227      49.33932033      48.89171920
C       51.87742146      49.02200848      48.99913736
C       52.62136840      49.49984153      50.19778426
O       53.97458204      49.31189855      50.22477639
C       51.81784759      50.11639556      51.20575087
C       50.40534427      50.29425805      51.08631805
H       46.00585856      49.39828349      51.54485633
H       46.21519557      49.18810592      49.80758569
H       45.46515565      50.63325624      50.33075917
H       48.03381331      49.59809394      48.84060976
H       50.04393356      49.11183398      47.97527189
H       52.47217955      48.57903305      48.16978766
H       54.53484435      49.87622493      50.81049277
H       52.20884677      50.68717897      52.02472811
H       49.74610902      50.68540446      51.95762044
