20
Lattice="100.0 0.0 0.0 0.0 100.0 0.0 0.0 0.0 100.0" Properties=species:S:1:pos:R:3 Energy=-322832.54181150923 pbc="F F F"
C       46.16076072      50.83009042      50.00191967
C       47.48272143      50.93694431      50.53707111
O       47.83849869      51.33708255      51.65029113
N       48.42094594      50.43401051      49.66996066
C       49.81543429      50.33551350      49.83515699
C       50.50657502      49.42857807      48.92308022
C       51.94655669      49.25974738      49.08861927
C       52.67315996      49.95055642      50.08913941
O       54.11814038      49.81842541      49.93241788
C       51.96396088      50.75866996      51.06218008
C       50.55267204      50.84093892      50.96650579
H       45.41271758      51.04238360      50.76440355
H       45.99296930      49.72771097      49.89328982
H       45.90772146      51.33986087      49.06451676
H       47.96724795      49.91588902      48.95479745
H       50.03191768      48.76849577      48.14882049
H       52.45184217      48.58306775      48.37572631
H       54.58728242      50.46797606      50.47791760
H       52.42040979      51.41693225      51.85117951
H       49.94056249      51.33022126      51.69671076
