20
Lattice="100.0 0.0 0.0 0.0 100.0 0.0 0.0 0.0 100.0" Properties=species:S:1:pos:R:3 Energy=-322821.36852037103 pbc="F F F"
C       46.44593554      50.94417702      50.16165598
C       47.86134747      50.30276927      49.70851591
O       48.00388034      49.53173632      48.77576556
N       48.99877318      50.70551344      50.49924971
C       50.33699440      50.42268599      50.31781145
C       50.80334242      49.08072063      50.36884072
C       52.08950225      48.54154684      50.01696811
C       52.99814895      49.52590962      49.73479254
O       54.21980623      49.35258799      49.15875976
C       52.64690786      50.87986372      49.62137009
C       51.36751380      51.35802998      49.84370376
H       46.36491578      51.09689841      51.20335092
H       45.67668909      50.34876298      49.72890916
H       46.28514179      52.00088298      49.76689153
H       48.78735572      51.41265509      51.22423444
H       50.11985644      48.24966084      50.49635354
H       52.50807699      47.55853301      50.03831238
H       54.32331091      48.34478787      49.21775746
H       53.55445214      51.44751884      49.37507091
H       51.07650983      52.44146699      49.91159846
