20
Lattice="100.0 0.0 0.0 0.0 100.0 0.0 0.0 0.0 100.0" Properties=species:S:1:pos:R:3 Energy=-322824.1268824076 pbc="F F F"
C       46.41515814      50.44278068      50.32766101
C       47.85569501      50.67361501      50.70290819
O       48.14479867      51.33257380      51.68456837
N       48.71858733      49.96260724      49.94696744
C       50.10749000      49.89690794      50.13977875
C       50.78654387      49.29070192      49.04826403
C       52.25292819      49.24660067      48.97436345
C       52.88392014      49.66605567      50.17942754
O       54.25893345      49.39759593      50.44916281
C       52.17039179      50.52269752      51.15657311
C       50.77349946      50.62272473      51.07496840
H       46.24220740      49.44532390      49.94246460
H       45.88366726      51.13912992      49.63850458
H       45.74106655      50.62071010      51.19215292
H       48.20839138      49.43227440      49.23954488
H       50.11207364      48.89609263      48.22836721
H       52.75650804      48.66742620      48.20053221
H       54.22368730      49.62062003      51.36581438
H       52.87558202      51.04503907      51.79946779
H       50.12140717      51.03008860      51.74302484
