20
Lattice="100.0 0.0 0.0 0.0 100.0 0.0 0.0 0.0 100.0" Properties=species:S:1:pos:R:3 Energy=-322824.1310633978 pbc="F F F"
C       46.11367296      51.41630890      49.97699382
C       47.15265316      50.25989240      49.97859428
O       46.94542079      49.08442997      49.83752101
N       48.47461846      50.76330474      50.18095436
C       49.72470089      50.14245892      50.02911734
C       50.23629875      48.85828280      49.92427218
C       51.60707161      48.63915019      49.71782505
C       52.47403269      49.67295461      49.76025595
O       53.80091580      49.35461691      49.52996482
C       52.03463513      50.99707334      49.61678364
C       50.68101626      51.11559273      49.72154705
H       45.45394379      51.27049894      49.05972713
H       46.68117662      52.36943647      49.94789454
H       45.50877008      51.36457399      50.94027287
H       48.41146216      51.72649620      50.41925214
H       49.53861179      47.91906652      49.86777285
H       51.94110697      47.63056353      49.45612321
H       54.54605621      49.97659682      49.63157950
H       52.66047531      51.85866283      49.46442257
H       50.34072397      52.13493114      49.70825461
