20
Lattice="100.0 0.0 0.0 0.0 100.0 0.0 0.0 0.0 100.0" Properties=species:S:1:pos:R:3 Energy=-322817.9920863707 pbc="F F F"
C       46.21703373      50.62806278      50.64877893
C       47.70130636      50.73949730      50.29933799
O       48.30250147      51.76671986      50.47083601
N       48.38869095      49.57492467      49.98264662
C       49.83423378      49.49009751      49.98237966
C       50.65872196      48.81814992      48.95185254
C       52.01787624      48.98870837      49.05715487
C       52.66149154      49.74645580      50.06672828
O       54.11646633      49.84109035      49.97451675
C       51.95877786      50.28569736      51.10890518
C       50.46024107      50.25761113      51.04946592
H       45.54462798      49.97215895      49.96688341
H       45.78062797      51.58260096      50.76303151
H       46.16166802      50.10097018      51.50920260
H       47.86005061      48.76701651      49.73892341
H       50.28870240      48.23328014      48.06407042
H       52.74488025      48.84196851      48.20773557
H       54.45537202      49.57763739      49.09892088
H       52.36431660      50.93686583      51.93592958
H       49.80586160      50.61356482      51.78105569
