20
Lattice="100.0 0.0 0.0 0.0 100.0 0.0 0.0 0.0 100.0" Properties=species:S:1:pos:R:3 Energy=-322829.594564249 pbc="F F F"
C       46.51544272      50.85640580      50.21089313
C       47.88869677      50.34782488      49.60216766
O       47.86754435      49.56779857      48.66491125
N       48.98917863      50.68960864      50.27892087
C       50.39890119      50.33718860      50.03806061
C       50.79175056      49.00921318      50.05649089
C       52.08568673      48.56728207      49.84188833
C       52.98178455      49.59354213      49.61029016
O       54.23804535      49.27177888      49.11836289
C       52.73247823      50.95700978      49.55657158
C       51.41160282      51.32625544      49.80277438
H       46.62661771      50.95803575      51.33508875
H       45.76195465      50.10845439      50.01874464
H       46.14049952      51.93983033      49.97843901
H       48.89637817      51.36037031      51.07792056
H       50.02222711      48.17000369      50.19571234
H       52.34428799      47.56142693      49.74206166
H       54.16127384      48.25061046      49.18709330
H       53.46430404      51.67353673      49.22878723
H       51.17134625      52.43857307      49.70249622
