20
Lattice="100.0 0.0 0.0 0.0 100.0 0.0 0.0 0.0 100.0" Properties=species:S:1:pos:R:3 Energy=-322830.96875 Energy_pyscf=-322830.5120324626 Energy_nn=-322832.25 pbc="F F F"
C       46.46287300      51.17291692      50.13992806
C       47.62534187      50.27518487      50.25765604
O       47.63885839      49.19717067      50.77869914
N       48.76641583      50.94786018      49.86541707
C       50.10181519      50.49092690      49.84265760
C       50.43783123      49.20084923      49.62826032
C       51.75080521      48.65623552      49.78371176
C       52.76605861      49.53846678      49.99087970
O       54.14320102      49.34948261      49.77621583
C       52.46958339      50.90191968      50.23418944
C       51.19257079      51.42901412      50.04939920
H       46.48187330      52.07713861      50.72490517
H       45.59838370      50.60081247      50.42129995
H       46.54195315      51.48673550      49.12023375
H       48.69473826      51.92557322      49.82371770
H       49.66863978      48.42405717      49.53368252
H       52.06115513      47.62806612      49.62272349
H       54.27394633      48.42856301      49.54392241
H       53.28151707      51.51189172      50.62275461
H       51.01976567      52.44278915      50.36035630
