20
Lattice="100.0 0.0 0.0 0.0 100.0 0.0 0.0 0.0 100.0" Properties=species:S:1:pos:R:3 Energy=-322828.5 Energy_pyscf=-322826.1124449872 Energy_nn=-322829.6875 pbc="F F F"
C       46.33350005      50.56457281      50.24202115
C       47.73106201      50.72041920      50.71346945
O       48.06319083      51.18118975      51.82216511
N       48.69718072      50.25682784      49.82376736
C       50.06747952      50.20594331      49.99019526
C       50.75724667      49.37440438      49.07946339
C       52.14801690      49.17560199      49.20323924
C       52.86733184      49.78115842      50.25796791
O       54.08974814      49.18571901      50.40662921
C       52.15870732      50.43978608      51.15061211
C       50.85123012      50.77751554      50.99789158
H       46.00607651      51.42813686      49.66800480
H       45.66052026      50.47014104      51.02303796
H       46.03915933      49.63104822      49.60913648
H       48.33822044      49.85020438      49.00126298
H       50.40248891      49.04829425      48.13510908
H       52.77585684      48.56251284      48.50238352
H       54.56785320      49.41081038      51.23655716
H       52.75001131      51.10310046      51.92290549
H       50.42973085      51.45760353      51.69868924
