20
Lattice="100.0 0.0 0.0 0.0 100.0 0.0 0.0 0.0 100.0" Properties=species:S:1:pos:R:3 Energy=-322835.625 Energy_pyscf=-322836.7528066157 Energy_nn=-322836.25 pbc="F F F"
C       46.15600133      50.51962170      50.29778340
C       47.52859270      50.48964758      50.88131320
O       47.87143375      51.12234177      51.86338102
N       48.42415633      49.83593285      50.03014507
C       49.85158183      49.91293545      49.99747684
C       50.53618416      49.08732638      49.04185127
C       51.92488200      49.02999771      49.17783740
C       52.70575058      49.59370627      50.26705085
O       54.08531539      49.43737750      50.38711531
C       52.00609040      50.53171414      51.09903519
C       50.58929892      50.59261121      50.98881804
H       46.05923776      50.01904268      49.32600582
H       45.60860670      51.49149820      50.27354141
H       45.47196842      49.89579639      50.87364774
H       47.95586461      49.25642195      49.36440458
H       49.95947173      48.60072694      48.26157327
H       52.40689094      48.60552983      48.28807744
H       54.42457685      48.70992319      49.89256784
H       52.59589751      51.24721712      51.69697465
H       50.12618263      51.27221223      51.71977072
