20
Lattice="100.0 0.0 0.0 0.0 100.0 0.0 0.0 0.0 100.0" Properties=species:S:1:pos:R:3 Energy=-322819.625 Energy_pyscf=-322818.83472406794 Energy_nn=-322819.0625 pbc="F F F"
C       46.13586406      50.64827803      50.11112007
C       47.63090941      50.65676633      50.49896979
O       47.99814278      51.68734187      51.09081793
N       48.43784379      49.70752399      49.93955520
C       49.87514089      49.74682407      50.04146621
C       50.64106605      49.17913826      48.98250787
C       52.05351546      49.32789264      48.76859019
C       52.63920131      49.85762303      49.91047066
O       54.04196488      49.64137544      50.05563905
C       51.92059758      50.49536486      50.98486835
C       50.58451128      50.33747502      51.07360228
H       45.67803968      49.76140652      49.58924379
H       45.89625757      51.41596206      49.35106809
H       45.55559096      50.73912167      51.04393338
H       47.93594407      49.32434338      49.09964925
H       50.13250877      48.82786840      48.18753041
H       52.63925325      48.74781124      48.04514414
H       54.36891486      49.77414807      50.91512634
H       52.48097720      50.89655694      51.79474513
H       49.96038951      50.79744543      51.75014732
