20
Lattice="100.0 0.0 0.0 0.0 100.0 0.0 0.0 0.0 100.0" Properties=species:S:1:pos:R:3 Energy=-322791.53125 Energy_pyscf=-322784.2535033419 Energy_nn=-322796.1875 pbc="F F F"
C       46.21617636      50.05688093      49.95905879
C       47.57789620      50.40030100      50.41546735
O       47.86971355      51.29250179      51.10357181
N       48.53578957      49.42283042      50.10345271
C       49.92557607      49.58769540      50.16889363
C       50.49018493      48.77404556      49.21689335
C       51.86699567      48.81154966      48.99010164
C       52.65885061      49.56700015      50.07076225
O       54.06854920      49.50788245      50.05317553
C       52.11472930      50.33008426      51.00155914
C       50.79098747      50.37959666      51.01599097
H       46.03808899      48.93222331      49.74310502
H       46.27792725      50.42570722      48.89181793
H       45.55251114      50.58803603      50.45559403
H       48.11146990      48.75079959      49.47085036
H       49.74824904      48.78881069      48.43037260
H       52.26665219      48.29883546      48.18583400
H       54.43292769      50.31747966      49.75582766
H       52.64980718      50.92343876      51.63065489
H       50.35298930      51.11386367      51.71446439
