20
Lattice="100.0 0.0 0.0 0.0 100.0 0.0 0.0 0.0 100.0" Properties=species:S:1:pos:R:3 Energy=-322825.21875 Energy_pyscf=-322817.79337938817 Energy_nn=-322826.3125 pbc="F F F"
C       46.27209209      50.58968038      50.23705575
C       47.67391290      50.12715531      50.46934472
O       48.00412005      49.61006959      51.57518927
N       48.70342498      50.52210221      49.68587247
C       50.06325739      50.11605816      49.72878672
C       50.55512309      48.98340894      48.96458463
C       51.98961007      48.89858252      49.07335656
C       52.74150989      49.52307635      50.08940506
O       54.13919192      49.24907696      50.26332030
C       52.20769583      50.48099775      50.89793199
C       50.87166301      50.85431200      50.58842559
H       45.87776072      50.62849375      49.15127409
H       46.11480682      51.39458204      50.84447134
H       45.66545566      49.77593089      50.69478698
H       48.43286064      50.89265175      48.78323447
H       49.98446311      48.62078667      48.14255438
H       52.59221787      48.32504273      48.42587633
H       54.41179712      48.36542086      49.89339217
H       52.76950642      50.85367471      51.74517876
H       50.49128671      51.75505578      51.20951271
