20
Lattice="100.0 0.0 0.0 0.0 100.0 0.0 0.0 0.0 100.0" Properties=species:S:1:pos:R:3 Energy=-322830.59375 Energy_pyscf=-322826.8863678584 Energy_nn=-322829.71875 pbc="F F F"
C       46.08779997      50.36064777      50.29909433
C       47.45265068      50.59587884      50.82022950
O       47.62704242      50.98354301      51.98247826
N       48.48031766      49.93600376      50.09118626
C       49.88229073      50.05091936      50.08022631
C       50.56568397      49.31669635      49.12505317
C       51.94056094      49.06207322      49.07229380
C       52.67312877      49.67190774      50.12674343
O       54.03693926      49.40706381      50.38315316
C       52.02372904      50.53677742      51.00640479
C       50.70472409      50.64580389      51.08020201
H       46.08931469      49.65268702      49.46491255
H       45.81027618      51.38098428      49.93421102
H       45.33015984      50.08930490      51.03448236
H       48.04538948      49.40123631      49.26579494
H       50.06558253      48.59885789      48.38832436
H       52.29234289      48.58337433      48.16330208
H       54.26756169      48.57237855      49.99872994
H       52.67349488      50.99735858      51.71474238
H       50.20173583      51.37616685      51.77579954
