20
Lattice="100.0 0.0 0.0 0.0 100.0 0.0 0.0 0.0 100.0" Properties=species:S:1:pos:R:3 Energy=-322818.125 Energy_pyscf=-322813.07560546254 Energy_nn=-322818.5 pbc="F F F"
C       46.15336920      50.09562137      50.31836420
C       47.52595334      50.48545561      50.60527476
O       47.87294325      51.34055501      51.41406951
N       48.49655794      49.72363415      50.00638078
C       49.90667271      49.93382932      49.96735880
C       50.53473000      49.30508090      48.92922234
C       51.98348159      49.13838606      49.09373870
C       52.77766356      49.42402596      50.26658166
O       54.07695010      49.25924168      50.28440971
C       52.08199123      50.21181175      51.16919738
C       50.59847062      50.32665480      51.14128589
H       46.02622414      48.94249913      50.08984442
H       45.86044843      50.45337769      49.33045965
H       45.45928421      50.51198883      50.98997002
H       48.33693776      49.22558034      49.13440616
H       49.92891074      48.99679911      48.03687592
H       52.35948375      48.77642994      48.16400737
H       54.52648911      49.93645450      50.79041002
H       52.63073654      50.76166385      52.07748435
H       50.13467956      51.05942732      51.76376196
