20
Lattice="100.0 0.0 0.0 0.0 100.0 0.0 0.0 0.0 100.0" Properties=species:S:1:pos:R:3 Energy=-322832.0 Energy_pyscf=-322829.66702274693 Energy_nn=-322831.875 pbc="F F F"
C       46.10626030      50.44483739      50.25861628
C       47.52904914      50.63414959      50.80973371
O       47.67611072      51.26604655      51.84754564
N       48.49089220      49.94513044      50.08068073
C       49.86598512      49.90606805      50.17805371
C       50.49420401      49.15707145      49.15773798
C       51.90387836      49.03642875      49.18203976
C       52.64650569      49.65578539      50.12765987
O       53.99157844      49.21076733      50.36873780
C       51.96663690      50.54338638      51.03658617
C       50.57243165      50.68324167      51.17149399
H       46.18901692      49.95146856      49.20482862
H       45.57678846      51.37946956      50.29200446
H       45.57621358      49.63925152      50.89172375
H       48.11730758      49.40420936      49.30516280
H       49.94279577      48.56699335      48.33584023
H       52.45296476      48.50295439      48.32529258
H       54.38123337      48.69635674      49.64016014
H       52.53570550      51.10381133      51.78478801
H       50.23730933      51.50789806      51.72368615
