20
Lattice="100.0 0.0 0.0 0.0 100.0 0.0 0.0 0.0 100.0" Properties=species:S:1:pos:R:3 Energy=-322814.25 Energy_pyscf=-322814.33696525823 Energy_nn=-322817.59375 pbc="F F F"
C       46.62840639      50.92256344      50.20873057
C       47.86315036      50.29256802      49.66119977
O       48.12141036      49.75706950      48.60578189
N       48.98222613      50.62371251      50.50324857
C       50.28549253      50.28061288      50.14809137
C       50.68235285      48.86216927      50.27675186
C       51.95927806      48.62990831      49.93547999
C       52.88253067      49.62310150      49.66431854
O       54.24412268      49.25387828      49.45074228
C       52.51957528      50.88633081      49.76296034
C       51.18213723      51.20851888      49.88112969
H       46.63742101      51.02337491      51.31430278
H       45.75036887      50.27952910      50.06833278
H       46.50689383      51.87879669      49.50458486
H       48.74070119      50.98940135      51.41580771
H       49.89612005      48.01812710      50.42476987
H       52.45835890      47.53463935      49.90410424
H       54.25539523      48.48395509      48.87546515
H       53.17940088      51.73906840      49.41917243
H       50.89366550      52.26867455      49.83213786
