20
Lattice="100.0 0.0 0.0 0.0 100.0 0.0 0.0 0.0 100.0" Properties=species:S:1:pos:R:3 Energy=-322792.78125 Energy_pyscf=-322793.9795588486 Energy_nn=-322798.21875 pbc="F F F"
C       46.30083180      50.93843449      50.12723310
C       47.81630336      50.39499726      50.54918142
O       48.11738919      50.18441049      51.74955316
N       48.75363794      50.31421939      49.56751878
C       50.20840141      50.17988754      49.77750229
C       50.79122906      49.31034792      48.99538246
C       52.06207778      48.79587730      49.20360825
C       52.77056054      49.51984048      50.23899537
O       54.20571541      49.43188552      50.27327098
C       52.32953166      50.62824253      50.98057943
C       50.90827345      50.68972872      50.90186260
H       45.96159836      50.19289417      49.35169891
H       46.15165622      51.79315377      49.35658408
H       45.62296926      50.79322860      50.97854553
H       48.35905471      50.23792101      48.65562957
H       50.42032324      48.87474959      48.14167241
H       52.72408315      48.47672898      48.38419920
H       54.49964571      49.00003358      49.45633219
H       53.03017744      51.23434158      51.57580619
H       50.23589749      51.32423360      51.54317229
