20
Lattice="100.0 0.0 0.0 0.0 100.0 0.0 0.0 0.0 100.0" Properties=species:S:1:pos:R:3 Energy=-322829.875 Energy_pyscf=-322829.71841917443 pbc="F F F"
C       46.29875129      50.47412238      50.12220950
C       47.69668217      50.51928854      50.70933247
O       47.96052738      50.72547717      51.89734648
N       48.58941252      50.34844376      49.70676329
C       49.96244311      50.18572434      49.84501140
C       50.53902534      49.28509497      48.85308551
C       51.98203929      49.19252612      48.89140330
C       52.64886946      49.66247281      49.98176379
O       53.98842334      49.47725052      50.31844553
C       52.01856005      50.44799990      50.94283287
C       50.66112305      50.80929660      50.85380323
H       45.84338310      51.47615698      49.97932796
H       45.59016311      49.74871705      50.65330095
H       46.37721250      50.00438920      49.13758000
H       48.19178248      49.97512905      48.82098352
H       49.88698705      48.97344638      48.00988427
H       52.65402525      48.77307785      48.22175957
H       54.33515194      48.94894385      49.65123750
H       52.52444453      50.83738195      51.84495800
H       50.11831999      51.34233823      51.67269833
