20
Lattice="100.0 0.0 0.0 0.0 100.0 0.0 0.0 0.0 100.0" Properties=species:S:1:pos:R:3 Energy=-322805.4375 Energy_pyscf=-322789.28641889134 Energy_nn=-322804.84375 pbc="F F F"
C       46.20163720      50.06812973      49.87035825
C       47.48744825      50.37610575      50.52452277
O       47.53060674      51.40502271      51.27184848
N       48.59094477      49.54935405      50.10039947
C       49.96277535      49.58439049      50.10656268
C       50.62431238      48.82976667      48.98078647
C       52.01883159      49.00196635      49.01269505
C       52.78815965      49.71090699      49.86554203
O       54.07138626      49.45045773      49.74318858
C       52.11871157      50.28807488      51.07766090
C       50.64640495      50.43697954      50.94764294
H       45.53250393      49.10182421      49.97783897
H       46.13089877      50.37194951      48.89429550
H       45.49553175      50.57022904      50.49013799
H       48.17472767      48.99051830      49.36727085
H       50.06804798      48.08135501      48.44341390
H       52.45664087      48.31128686      48.29838868
H       54.69420582      50.20728319      49.95242998
H       52.73548198      50.80444395      51.70067331
H       50.23028866      51.19112908      51.76902664
