20
Lattice="100.0 0.0 0.0 0.0 100.0 0.0 0.0 0.0 100.0" Properties=species:S:1:pos:R:3 Energy=-322804.65625 Energy_pyscf=-322809.2570855379 Energy_nn=-322805.09375 pbc="F F F"
C       46.15449732      50.07315539      50.06258606
C       47.58541477      50.39704576      50.37582577
O       47.93980200      51.46255510      50.77059330
N       48.55559508      49.39220302      50.04926881
C       49.98058793      49.47649771      50.13611154
C       50.65396777      48.66665240      49.06622356
C       51.94515418      48.98499999      48.93574938
C       52.74361232      49.50220382      50.03260989
O       54.12171382      49.51984788      49.98022341
C       52.05209236      50.15799771      50.98639756
C       50.65996884      50.25827836      51.05718253
H       45.70816374      49.10656422      50.19567787
H       46.15527299      50.45187622      49.05603124
H       45.53222292      50.82333590      50.51664394
H       48.19519515      48.72149243      49.35912971
H       50.05667626      48.38751214      48.32929443
H       52.40540372      48.52337664      48.10488625
H       54.35182011      50.44897184      50.07237936
H       52.65677105      50.97631536      51.57320567
H       50.06411724      50.95592468      51.69303752
