20
Lattice="100.0 0.0 0.0 0.0 100.0 0.0 0.0 0.0 100.0" Properties=species:S:1:pos:R:3 Energy=-322800.40625 Energy_pyscf=-322801.5219341086 Energy_nn=-322804.0625 pbc="F F F"
C       46.56822270      50.43267189      50.04840976
C       47.95297105      50.03852362      50.28808802
O       48.06769878      48.96201593      50.82043676
N       48.90847253      50.81702540      49.77141625
C       50.35547145      50.48279200      49.78115713
C       50.62550775      49.21692143      49.15171683
C       51.86307705      48.68874405      49.30367525
C       52.87569234      49.48947062      49.93791073
O       54.08452393      48.97290108      50.32092634
C       52.47156914      50.77759005      50.57695832
C       51.16387222      51.39109675      50.37020989
H       45.98500882      49.47448239      50.05651286
H       46.58724996      51.07393397      49.26221058
H       46.10139986      51.16519719      50.79834675
H       48.60821377      51.44982995      49.00508084
H       49.83482793      48.67389389      48.66669319
H       51.87292668      47.68073956      48.82443886
H       54.11576869      48.03981136      49.87687806
H       53.28491168      51.01187460      51.28690260
H       50.83133003      52.38871523      50.74481311
