20
Lattice="100.0 0.0 0.0 0.0 100.0 0.0 0.0 0.0 100.0" Properties=species:S:1:pos:R:3 Energy=-322812.53125 Energy_pyscf=-322813.1340200326 Energy_nn=-322814.09375 pbc="F F F"
C       46.16520288      50.02132277      50.01374475
C       47.53087443      50.39068230      50.51702217
O       47.81794061      51.42738217      51.08043174
N       48.47515417      49.50694105      50.09163524
C       49.93589077      49.56676055      50.10127071
C       50.62042900      48.82196310      49.08644194
C       51.96658519      49.10701734      48.87639376
C       52.72195842      49.64222062      49.85158241
O       54.13308868      49.22090512      49.92872792
C       52.11469469      50.39257156      50.89231975
C       50.67920051      50.31390653      51.09429266
H       45.64101389      49.14031321      50.17092998
H       46.17050791      50.16736902      48.88515573
H       45.45635471      50.72886063      50.50094474
H       48.25780035      49.00767748      49.23058355
H       50.00079757      48.13324993      48.46695170
H       52.59912177      48.56206974      48.13882279
H       54.55909957      50.14896899      49.99608738
H       52.60188383      50.91606995      51.76464089
H       50.05683898      51.07275321      51.65696508
