20
Lattice="100.0 0.0 0.0 0.0 100.0 0.0 0.0 0.0 100.0" Properties=species:S:1:pos:R:3 Energy=-322809.0625 Energy_pyscf=-322796.3184884031 Energy_nn=-322811.25 pbc="F F F"
C       46.24690121      50.14833889      50.01050053
C       47.54109700      50.48133800      50.34226644
O       47.81688554      51.51518252      50.92233264
N       48.51015908      49.55801104      49.89056947
C       49.89652735      49.71513499      49.97366980
C       50.56214833      48.78510903      49.12228746
C       51.98149337      49.07128444      49.00732108
C       52.74913589      49.63595397      49.96167365
O       54.16655983      49.38608858      49.87366846
C       52.03353159      50.23726039      51.07994091
C       50.59839211      50.31451078      50.96825334
H       45.93503276      49.00222285      50.02534186
H       46.03499807      50.44338169      48.95578336
H       45.67246211      50.51054001      50.77548775
H       48.07068801      48.82951374      49.36361012
H       50.07776420      48.26875007      48.39286216
H       52.39045452      48.27848938      48.33077707
H       54.45847538      50.34133326      49.96236559
H       52.69045762      50.96297709      51.64421948
H       50.09726619      50.83297785      51.78985294
