20
Lattice="100.0 0.0 0.0 0.0 100.0 0.0 0.0 0.0 100.0" Properties=species:S:1:pos:R:3 Energy=-322792.34375 Energy_pyscf=-322781.552585464 Energy_nn=-322799.65625 pbc="F F F"
C       46.51659891      50.31962730      50.36447632
C       47.80882917      50.72068080      49.82820837
O       48.11651719      51.86579945      49.59255076
N       48.80187072      49.59477208      49.95875406
C       50.19325261      49.79512403      49.85246367
C       50.66597424      48.80391686      49.04379341
C       51.99656650      49.06068153      48.74781377
C       52.93451600      49.71871748      49.71749688
O       54.34436903      49.44019140      49.47854464
C       52.44144031      50.54274571      50.71159587
C       50.97721533      50.54308349      50.82864079
H       45.79123685      51.13453110      50.10184650
H       46.43967513      50.42537936      51.42206296
H       46.35259464      49.19416283      50.09284594
H       48.39140645      48.80090370      50.48842725
H       50.19765149      47.95897509      48.45193343
H       52.56098200      48.43736861      48.24803323
H       54.51187180      49.82838405      48.58990778
H       53.04518097      51.20931894      51.29165645
H       50.43836257      51.09760591      51.57420080
