20
Lattice="100.0 0.0 0.0 0.0 100.0 0.0 0.0 0.0 100.0" Properties=species:S:1:pos:R:3 Energy=-322793.96875 Energy_pyscf=-322797.0531323044 Energy_nn=-322798.125 pbc="F F F"
C       46.22276746      51.33241289      50.00320733
C       47.38461592      50.32582017      49.72302703
O       47.27002093      49.14984959      49.52135543
N       48.55439577      51.03253222      49.59787366
C       50.01724031      50.49436953      49.59908304
C       50.31872098      49.04592571      49.56819002
C       51.55545069      48.52713760      49.37368044
C       52.59210115      49.59873608      49.39882856
O       53.95989520      49.49754195      49.59793737
C       52.25194351      50.91655159      49.39738464
C       50.98249679      51.50440693      49.39386044
H       46.60951918      52.34169324      50.14565416
H       45.73076390      51.06737912      51.02712308
H       45.39960173      51.11119054      49.39581792
H       48.58015001      51.93248457      50.11741670
H       49.59689838      48.12399909      49.72075279
H       51.78228608      47.55183101      48.99956693
H       54.26186315      48.91760513      48.94774323
H       53.11556528      51.54691786      49.48036668
H       50.97648445      52.53118128      49.59751730
