20
Lattice="100.0 0.0 0.0 0.0 100.0 0.0 0.0 0.0 100.0" Properties=species:S:1:pos:R:3 Energy=-322840.375 Energy_pyscf=-322835.00313161843 Energy_nn=-322837.25 pbc="F F F"
C       46.28844504      50.30470136      50.07468916
C       47.66554926      50.67026867      50.51012804
O       47.96362063      51.26619983      51.57970622
N       48.64466915      50.28963945      49.60376585
C       50.02613196      50.02120558      49.96414364
C       50.77359225      49.47020662      48.94446851
C       52.11474786      49.20735408      49.01401783
C       52.83288900      49.67569916      50.07309606
O       54.19110314      49.48145748      50.12048188
C       52.18430042      50.34851746      51.10272877
C       50.78774525      50.60053901      51.04124039
H       46.09364428      50.40291691      49.04540995
H       45.59900991      50.88165947      50.71053638
H       46.10633167      49.31894975      50.42485328
H       48.39183344      49.90074505      48.70040854
H       50.13764474      48.94239152      48.24146586
H       52.57265206      48.56028855      48.22742192
H       54.60240002      50.05382413      50.75182156
H       52.69744268      50.67232994      52.02272682
H       50.41911435      51.23691824      51.77792652
