20
Lattice="100.0 0.0 0.0 0.0 100.0 0.0 0.0 0.0 100.0" Properties=species:S:1:pos:R:3 Energy=-322822.5625 Energy_pyscf=-322810.13641822984 Energy_nn=-322821.375 pbc="F F F"
C       46.24389237      50.82340046      49.81287094
C       47.62363152      50.60701357      50.39383005
O       47.85592084      51.19130592      51.53486287
N       48.54637390      49.84817958      49.69192581
C       49.93994263      49.74711615      49.93438751
C       50.58807921      49.10844399      48.86584436
C       52.02292308      49.02166858      48.93081987
C       52.72572625      49.62038183      50.04828066
O       54.03952901      49.61138964      50.05009126
C       52.13346111      50.40393958      51.11482029
C       50.67740251      50.44186081      50.88464354
H       45.89407921      51.58033318      49.11727211
H       45.77045858      51.14385176      50.76606435
H       45.84568803      49.82212823      49.42444825
H       48.19243004      49.16964617      49.00850527
H       50.04741118      48.90301633      48.01218302
H       52.59231566      48.41615412      48.25446831
H       54.36547493      50.51302261      50.07984942
H       52.46748188      50.94464042      51.99215522
H       50.13766417      51.02540637      51.68164032
