20
Lattice="100.0 0.0 0.0 0.0 100.0 0.0 0.0 0.0 100.0" Properties=species:S:1:pos:R:3 Energy=-322824.09375 Energy_pyscf=-322825.1286763099 Energy_nn=-322824.125 pbc="F F F"
C       46.19453512      50.32260853      50.21182882
C       47.62146816      50.66937453      50.60374626
O       47.88592123      51.23428236      51.65937865
N       48.64279276      50.16554909      49.83771249
C       50.09932070      49.96580266      50.19763652
C       50.79391703      49.20744250      49.18960704
C       52.13531965      49.21812347      49.09479894
C       52.91551250      49.64710864      50.17937523
O       54.17177051      49.30346066      50.21005592
C       52.20835504      50.48752194      51.05937964
C       50.85192400      50.61240805      51.16537210
H       46.19373516      50.02464543      49.12459017
H       45.58283874      51.23597325      50.42149863
H       45.83586107      49.41753032      50.71662182
H       48.38974638      49.68549988      48.92894601
H       50.33536830      48.65187201      48.37512423
H       52.62572476      48.53361877      48.39313814
H       54.66182392      49.86890585      50.87848401
H       52.93052958      50.96260532      51.84818649
H       50.51659243      51.52574213      51.77109375
