20
Lattice="100.0 0.0 0.0 0.0 100.0 0.0 0.0 0.0 100.0" Properties=species:S:1:pos:R:3 Energy=-322829.875 Energy_pyscf=-322831.5165408939 Energy_nn=-322830.75 pbc="F F F"
C       46.24958030      50.47330594      50.21647087
C       47.64810819      50.76230836      50.65258117
O       47.95561795      51.56389998      51.54978117
N       48.54059765      50.33656085      49.71309832
C       49.93084893      50.09809875      49.84993388
C       50.72045858      49.44404206      48.88048211
C       52.07820277      49.19326941      48.96939005
C       52.79798613      49.75017626      50.13045136
O       54.15498526      49.43398128      50.13668261
C       52.04281793      50.47544204      51.09879503
C       50.63598458      50.54226827      51.01816837
H       45.56617024      50.66587550      51.03656517
H       46.13269416      49.36259805      49.92374910
H       45.91585221      51.05186148      49.31149432
H       48.11689879      49.77616272      48.99198685
H       50.24779389      48.65244430      48.16139308
H       52.53361846      48.54925004      48.30545088
H       54.41229978      49.68684437      51.00511328
H       52.64024300      51.04083353      51.86801976
H       50.03249565      51.08536187      51.73528437
