20
Lattice="100.0 0.0 0.0 0.0 100.0 0.0 0.0 0.0 100.0" Properties=species:S:1:pos:R:3 Energy=-322842.1875 Energy_pyscf=-322830.3817930584 Energy_nn=-322835.625 pbc="F F F"
C       46.15978824      50.47149837      49.94099557
C       47.59309783      50.68472690      50.29270566
O       48.12068765      51.65721401      50.87983357
N       48.49700969      49.70164916      49.79918433
C       49.83776093      49.75130291      49.94691481
C       50.70410680      48.97078369      49.02988882
C       52.02624490      48.91723422      49.03123915
C       52.78951068      49.58031586      50.01944082
O       54.10438106      49.60753288      49.93879988
C       52.08637016      50.23335579      51.06624670
C       50.60962390      50.32828542      50.99504549
H       45.78436686      49.42999028      50.15097267
H       46.01571230      50.81908239      48.91123959
H       45.65939636      51.05079499      50.70475652
H       48.02447224      48.80310843      49.60161966
H       50.20643969      48.48389233      48.24004264
H       52.57739322      48.46428116      48.19547560
H       54.48728865      50.17649071      50.59851905
H       52.67955423      50.68318871      51.90096666
H       50.12163239      50.73593462      51.88089450
