20
Lattice="100.0 0.0 0.0 0.0 100.0 0.0 0.0 0.0 100.0" Properties=species:S:1:pos:R:3 Energy=-322820.03125 Energy_pyscf=-322820.4303887557 Energy_nn=-322822.15625 pbc="F F F"
C       46.34357420      50.64152358      49.87816596
C       47.62459577      50.60860810      50.62658876
O       47.76359657      51.07627612      51.75955083
N       48.61604334      50.11518093      49.76538932
C       50.02782419      50.04781483      49.95152408
C       50.61779178      49.33064142      48.87172887
C       52.06325869      49.17722023      48.89548712
C       52.82934821      49.80244942      50.03649098
O       54.17426729      49.54709900      50.08659092
C       52.17446432      50.63352257      50.93586759
C       50.77859055      50.60619264      50.95654671
H       45.78085298      51.53814082      50.13144915
H       45.67105273      50.03819426      50.50137396
H       46.41951864      50.30358342      48.93711737
H       48.38909492      49.53695589      48.94139124
H       49.96469662      48.83528111      48.17231165
H       52.34085252      48.32033599      48.35602295
H       54.42769211      50.04619176      50.88878041
H       52.77994130      51.08428712      51.76379196
H       50.13410691      51.08912370      51.73745633
