20
Lattice="100.0 0.0 0.0 0.0 100.0 0.0 0.0 0.0 100.0" Properties=species:S:1:pos:R:3 Energy=-322815.9375 Energy_pyscf=-322812.4534282677 Energy_nn=-322814.96875 pbc="F F F"
C       46.19928822      50.35779082      49.97431685
C       47.54155115      50.64386745      50.42853721
O       47.86723115      51.65996385      50.96475101
N       48.42504992      49.66606533      50.06226962
C       49.89979182      49.68008720      50.07936481
C       50.52236398      48.91835794      49.06435866
C       51.89949215      49.20436989      48.84266504
C       52.66479666      49.71438618      49.88560225
O       54.01650815      49.84230905      49.97074580
C       51.99545344      50.42973428      50.90394970
C       50.66101065      50.36056154      50.97615158
H       45.46540589      51.04172917      50.62385537
H       45.96878052      49.31561801      50.00836728
H       45.85859799      50.79389933      49.04487224
H       47.94873003      48.79183317      49.83514455
H       50.00382159      48.06513231      48.73058479
H       52.20740354      48.53934774      48.07758387
H       54.47290256      49.17270099      49.33055986
H       52.56993787      50.90665387      51.69816298
H       50.20780253      51.01526065      51.78438555
