20
Lattice="100.0 0.0 0.0 0.0 100.0 0.0 0.0 0.0 100.0" Properties=species:S:1:pos:R:3 Energy=-322800.1875 Energy_pyscf=-322795.01081660873 Energy_nn=-322802.96875 pbc="F F F"
C       46.28039124      50.66810967      50.33795487
C       47.82718506      50.56514210      50.78420688
O       48.17132240      50.44661115      51.93752759
N       48.72573156      50.23003321      49.74831176
C       50.07836803      50.32503620      49.75826578
C       50.85137912      49.31315818      48.91731731
C       52.19414121      48.95580927      49.16873804
C       52.74430216      49.65137408      50.32018560
O       54.17795875      49.51969242      50.48817699
C       52.09489173      50.45742400      51.19457478
C       50.85273448      50.80635111      50.91856605
H       46.30192811      51.63562233      49.71638994
H       45.67846558      50.63483208      51.17351366
H       45.82160255      49.77601063      49.77478220
H       48.41902760      49.79972627      48.87794419
H       50.48840546      48.78332031      48.06170404
H       52.83709342      48.41457293      48.38933567
H       54.44514840      49.54402577      51.41865175
H       52.53426087      51.12543897      52.06590857
H       50.43873565      51.69085250      51.42136033
