20
Lattice="100.0 0.0 0.0 0.0 100.0 0.0 0.0 0.0 100.0" Properties=species:S:1:pos:R:3 Energy=-322813.40625 Energy_pyscf=-322799.43482689396 Energy_nn=-322814.375 pbc="F F F"
C       46.04305042      50.58434286      50.27143181
C       47.53052819      50.70305708      50.53220368
O       48.06755710      51.57309661      51.30002271
N       48.32224836      49.87769906      49.83470412
C       49.77567463      49.85256232      49.84627190
C       50.50771456      49.12683936      48.87875828
C       51.92409329      49.00497430      49.04361342
C       52.62675645      49.90772339      49.99969823
O       53.98457406      49.91211022      50.01401647
C       51.88163355      50.63311168      50.86986723
C       50.48202956      50.72100018      50.83296002
H       45.38792244      50.29211296      50.95717827
H       45.93103934      49.71715307      49.59157284
H       45.85117404      51.50360399      49.71067489
H       47.81251604      49.60754689      48.99982333
H       50.00764385      48.75182655      48.09735444
H       52.49284479      48.25498530      48.39412724
H       54.47908127      50.02586194      49.15733546
H       52.74240873      50.99997685      51.62705397
H       49.85909297      51.17638084      51.61298354
