20
Lattice="100.0 0.0 0.0 0.0 100.0 0.0 0.0 0.0 100.0" Properties=species:S:1:pos:R:3 Energy=-322832.53125 Energy_pyscf=-322822.56015542033 Energy_nn=-322831.625 pbc="F F F"
C       46.06035599      50.69215216      50.04729353
C       47.51710894      50.73713571      50.35303630
O       47.95991984      51.59164163      51.15736956
N       48.28746932      49.75820987      49.82494810
C       49.80046923      49.59627497      49.89137658
C       50.56039869      49.04831949      48.86171130
C       51.95499867      49.16259091      48.97904012
C       52.62976742      49.92460786      49.92342568
O       53.95745955      49.77078659      49.89964077
C       51.77555675      50.31985863      51.05013922
C       50.35750430      50.11486567      51.08781195
H       46.01542866      50.30240360      49.00367487
H       45.61021063      51.77640253      50.00498682
H       45.46932852      50.11030392      50.70525709
H       47.95154654      49.33378998      48.95609119
H       50.25453357      48.50319180      47.99927795
H       52.68738381      48.81592551      48.31774093
H       54.44228406      50.44379901      50.40954913
H       52.24795958      50.81797263      51.89969635
H       49.76650253      50.37062751      51.98935831
