20
Lattice="100.0 0.0 0.0 0.0 100.0 0.0 0.0 0.0 100.0" Properties=species:S:1:pos:R:3 Energy=-322842.5625 Energy_pyscf=-322838.0662421248 Energy_nn=-322837.0 pbc="F F F"
C       46.14336851      50.67800460      49.86808534
C       47.52907254      50.60799954      50.46849940
O       47.75369164      51.24494523      51.50956710
N       48.38777196      49.82951422      49.78521784
C       49.79165573      49.69187941      49.89869951
C       50.58997060      49.03648174      48.94996162
C       51.96481771      49.02707718      48.98561418
C       52.59744798      49.72127849      49.96759851
O       53.95168715      49.73918167      49.88563589
C       51.86122158      50.29099915      51.09531432
C       50.47339984      50.31027127      51.02985621
H       45.89487948      50.40992233      48.86269955
H       45.71956254      51.71196010      50.04671878
H       45.54323901      50.00075117      50.54422753
H       47.98803073      49.40701584      48.95338319
H       49.99702974      48.58614540      48.12652731
H       52.65059991      48.80795552      48.22664709
H       54.36498584      50.44807202      50.41666850
H       52.27982410      50.81685815      51.87832905
H       49.83082001      50.76323864      51.82289709
