20
Lattice="100.0 0.0 0.0 0.0 100.0 0.0 0.0 0.0 100.0" Properties=species:S:1:pos:R:3 Energy=-322809.53125 Energy_pyscf=-322797.3081914986 Energy_nn=-322807.9375 pbc="F F F"
C       46.34161785      50.73361265      50.26889333
C       47.83354175      50.77727179      49.89910120
O       48.38457206      51.66049447      49.15028283
N       48.74697312      50.02069374      50.52405925
C       50.14275543      50.01047075      49.90926123
C       50.68289913      48.88125611      49.35594192
C       51.98573906      48.83189333      49.00054716
C       52.82572455      49.98032210      49.41108868
O       54.12424093      49.65810132      49.47467754
C       52.31727446      51.10548264      50.00768036
C       50.87341455      51.14106590      50.26983229
H       45.79074723      49.81902961      49.90874153
H       45.79811226      51.73194188      50.14726804
H       46.39302559      50.39724246      51.39236619
H       48.54183294      49.14258900      50.93896250
H       50.20931000      48.06517582      48.91837320
H       52.47837068      47.92430617      48.71809984
H       54.23430741      48.75815294      49.01153571
H       52.94767632      51.92987099      50.06235515
H       50.45575571      52.06280712      50.93855220
