20
Lattice="100.0 0.0 0.0 0.0 100.0 0.0 0.0 0.0 100.0" Properties=species:S:1:pos:R:3 Energy=-322825.25 Energy_pyscf=-322824.239599684 Energy_nn=-322828.71875 pbc="F F F"
C       46.31690898      50.65881778      50.14774893
C       47.73296219      50.63868902      50.58446689
O       47.90990807      50.94264807      51.76228880
N       48.68715362      50.28401603      49.66822739
C       50.10000845      50.20860884      49.87030447
C       50.84823657      49.55693097      48.83395102
C       52.17121051      49.31112722      49.08440761
C       52.89337340      50.03998327      50.08290349
O       54.13322016      49.47276861      50.33384436
C       52.14000610      50.66554512      51.03618537
C       50.70728620      50.80419530      50.90998726
H       45.86386035      49.71565841      50.05073776
H       45.95302044      51.10892264      49.16009691
H       45.76439906      51.31359942      50.82840725
H       48.29659594      50.51793023      48.72515165
H       50.26885962      49.09550540      47.98202638
H       52.66219996      48.73798784      48.29968534
H       54.30684775      49.66913971      51.28232248
H       52.70867849      51.16028893      51.84610968
H       50.13950963      51.45344345      51.55703858
