20
Lattice="100.0 0.0 0.0 0.0 100.0 0.0 0.0 0.0 100.0" Properties=species:S:1:pos:R:3 Energy=-322792.90625 Energy_pyscf=-322785.3978496892 Energy_nn=-322799.40625 pbc="F F F"
C       46.42024914      50.28248055      49.81316867
C       47.78198038      50.63424792      50.32066567
O       48.02732649      51.67266795      50.79148568
N       48.67149121      49.61973663      50.03004276
C       50.09212155      49.68808087      50.16193164
C       50.65938948      49.00232563      48.92726925
C       52.20758902      48.84736755      48.82571262
C       52.86543012      49.59680749      49.77400355
O       54.31001045      49.55670118      49.83930321
C       52.23405716      50.22666483      50.99829907
C       50.86792351      50.26879175      51.15149961
H       46.06866785      51.00086163      49.10971875
H       45.94979407      50.43151989      50.82252989
H       46.42884219      49.41307071      49.24190460
H       48.32270143      48.88040888      49.41578270
H       50.28468770      48.58548655      47.96659962
H       52.75584505      48.70677928      47.99604663
H       54.68103899      50.47906078      49.93350731
H       53.12073977      50.59718715      51.65973778
H       50.36613137      50.90135652      51.93886887
