20
Lattice="100.0 0.0 0.0 0.0 100.0 0.0 0.0 0.0 100.0" Properties=species:S:1:pos:R:3 Energy=-322800.1875 Energy_pyscf=-322797.52664456866 Energy_nn=-322805.09375 pbc="F F F"
C       46.17604461      51.25755151      50.23756414
C       47.51404318      50.45034956      50.18138675
O       47.39696578      49.26640156      49.80383185
N       48.72230403      50.97306224      50.56323164
C       50.06776829      50.51393161      50.25511457
C       50.47112456      49.07533023      50.36725408
C       51.80768767      48.69900761      50.18779165
C       52.65044769      49.86185761      49.92404634
O       53.97758376      49.53683015      49.87750825
C       52.31558560      51.10497253      49.89972482
C       51.02842114      51.48375641      50.35984253
H       46.36945301      52.32624784      50.73687921
H       45.53677389      50.56825670      50.76121389
H       45.65421782      51.70323084      49.44209710
H       48.62863900      51.94454639      50.75437060
H       49.69769783      48.33984821      50.53955559
H       51.98615265      47.65461023      50.15657899
H       54.15564173      48.95107733      49.08432800
H       53.15831790      51.72092226      49.51585055
H       50.82219927      52.54854588      50.20176297
