20
Lattice="100.0 0.0 0.0 0.0 100.0 0.0 0.0 0.0 100.0" Properties=species:S:1:pos:R:3 Energy=-322814.9375 Energy_pyscf=-322806.9506294553 Energy_nn=-322815.75 pbc="F F F"
C       46.43805004      50.44267912      50.40737395
C       47.83110205      50.60256333      49.86418574
O       48.25228413      51.71396919      49.43417075
N       48.74393926      49.67916949      50.35598740
C       50.23060997      49.77772955      49.88472067
C       50.74957952      48.92376249      48.86701812
C       52.19049735      48.81886934      48.84039083
C       52.97191376      49.68271248      49.57314382
O       54.34121201      49.64139019      49.44830547
C       52.36082616      50.51994318      50.59671985
C       50.99671283      50.42566986      50.81461388
H       45.64194221      51.00894608      49.92389754
H       46.17794757      50.53073633      51.51244356
H       46.10221503      49.48248708      50.10314692
H       48.45412774      48.78936756      50.65637645
H       50.13511907      48.22399304      48.28111969
H       52.80398940      48.18775516      48.30555410
H       54.67879436      49.95490462      48.62874581
H       52.91446029      51.27255104      51.09470176
H       50.52319728      50.79357872      51.79371677
