20
Lattice="100.0 0.0 0.0 0.0 100.0 0.0 0.0 0.0 100.0" Properties=species:S:1:pos:R:3 Energy=-322817.84375 Energy_pyscf=-322806.6793765353 Energy_nn=-322814.84375 pbc="F F F"
C       46.11700900      50.79562389      49.90054236
C       47.65638819      50.56962091      50.38372560
O       47.86364248      50.77433264      51.56667334
N       48.61110819      50.13414733      49.33711647
C       50.08574362      49.95287261      49.71067610
C       50.80549431      49.18473080      48.89390810
C       52.19404235      49.05717689      48.94949357
C       52.83693969      49.75254194      49.98047089
O       54.13834561      49.44616475      50.08784226
C       52.05954353      50.63473168      50.76007978
C       50.68748815      50.90317902      50.48520652
H       46.00102285      50.49020342      48.84256117
H       46.04554614      51.96548986      49.94998367
H       45.44890428      50.15463939      50.44199250
H       48.21263680      50.50778899      48.45649922
H       50.22416100      48.71414746      48.10041366
H       52.95757659      48.34471089      48.58120613
H       54.78523238      50.16631860      50.34284453
H       52.45062960      51.14084654      51.66351979
H       50.14441332      51.59273597      51.13340753
