20
Lattice="100.0 0.0 0.0 0.0 100.0 0.0 0.0 0.0 100.0" Properties=species:S:1:pos:R:3 Energy=-322841.21875 Energy_pyscf=-322837.1313794309 Energy_nn=-322838.09375 pbc="F F F"
C       46.27526440      50.26924165      50.18361512
C       47.72635628      50.55759298      50.68059657
O       47.99814216      51.26533016      51.60440792
N       48.68025898      50.12156473      49.77196198
C       50.08935131      50.19019323      49.80388376
C       50.76845881      49.37025376      48.88384021
C       52.17567215      49.11843025      48.96094521
C       52.83890775      49.66922539      50.08993528
O       54.18633345      49.46229573      50.22114505
C       52.15573989      50.43328150      51.07010476
C       50.80294561      50.79846818      50.80731494
H       46.12726257      50.69521591      49.12314078
H       45.57983600      50.77849884      50.87595808
H       45.99595253      49.24723762      50.15181881
H       48.28879116      49.87737023      48.83334590
H       50.09018895      48.96704385      48.17453137
H       52.76584954      48.51160350      48.17506203
H       54.52129798      49.96964285      50.93958226
H       52.73280733      50.70074626      52.01709184
H       50.34984341      51.33991029      51.62035963
