20
Lattice="100.0 0.0 0.0 0.0 100.0 0.0 0.0 0.0 100.0" Properties=species:S:1:pos:R:3 Energy=-322791.875 Energy_pyscf=-322779.3928620579 Energy_nn=-322799.5 pbc="F F F"
C       46.30532327      51.33435905      50.12059294
C       47.30300448      50.29063087      49.51621547
O       47.04491537      49.15426651      49.45990555
N       48.63526805      50.91908104      49.53902530
C       49.97940532      50.48681438      49.44920814
C       50.29740207      49.02615351      49.49911943
C       51.62632077      48.59632039      49.38933331
C       52.59204553      49.51071126      49.40682437
O       53.98387813      49.39865963      49.68345848
C       52.25349762      50.93787167      49.50757666
C       51.07705960      51.41953345      49.40962838
H       46.65405728      52.38732290      49.84674703
H       46.02964077      51.27521659      51.23764120
H       45.38381489      50.97123525      49.61439015
H       48.42999503      51.79392625      49.94478230
H       49.46366872      48.18435120      49.77803462
H       51.69836361      47.53840263      49.07554756
H       54.41197383      49.16344679      48.80221610
H       52.97143879      51.59469177      49.62427236
H       51.01707473      52.57826272      49.72884543
