20
Lattice="100.0 0.0 0.0 0.0 100.0 0.0 0.0 0.0 100.0" Properties=species:S:1:pos:R:3 Energy=-322829.3125 Energy_pyscf=-322826.9359770369 Energy_nn=-322832.96875 pbc="F F F"
C       46.31608724      50.55069246      50.30438775
C       47.82820516      50.57691572      50.71340980
O       48.10425311      51.02141785      51.86263935
N       48.69493458      50.21571482      49.75781536
C       50.11679196      50.19714975      49.86457498
C       50.91376653      49.46142350      48.95536577
C       52.17172954      49.07860481      49.24724268
C       52.87047039      49.57316684      50.33550457
O       54.21329243      49.39573696      50.39993527
C       52.14190995      50.52876867      51.23614991
C       50.75746217      50.79073769      50.96047761
H       46.17128874      51.57550088      49.76237379
H       45.61108266      50.64317567      51.08448657
H       45.74565852      49.77836604      49.64662723
H       48.32303872      49.65451387      48.95781287
H       50.43240641      49.00143539      48.04313953
H       52.73692431      48.46248459      48.48641667
H       54.61167775      49.50639504      51.26502087
H       52.64102048      51.20187766      51.95689723
H       50.34767549      51.39654044      51.71175874
