20
Lattice="100.0 0.0 0.0 0.0 100.0 0.0 0.0 0.0 100.0" Properties=species:S:1:pos:R:3 Energy=-322796.0 Energy_pyscf=-322800.83386909345 Energy_nn=-322799.5625 pbc="F F F"
C       46.59292561      50.51922506      49.99963681
C       48.00648650      50.32726425      50.54676400
O       48.28588168      50.02934488      51.68774890
N       48.92711310      50.91245684      49.72790865
C       50.37300645      50.55803480      49.86405685
C       50.86316644      49.43687666      49.07632331
C       52.09629034      48.91060044      49.19885917
C       52.90599608      49.62041076      49.95210264
O       54.12345715      49.00263293      50.36378485
C       52.63683906      50.81711883      50.50902514
C       51.37359868      51.37402686      50.36429100
H       45.96383014      49.81629131      50.36476446
H       46.48461103      50.36620205      48.91523683
H       46.15310186      51.54655521      50.28057166
H       48.57693755      51.08453634      48.79391588
H       50.11252636      48.99782717      48.58760581
H       52.06372948      47.78763234      48.94294833
H       54.22073571      48.09085907      49.97265444
H       53.33309399      51.39462365      51.18253122
H       51.21697873      52.28894018      50.94463089
