20
Lattice="100.0 0.0 0.0 0.0 100.0 0.0 0.0 0.0 100.0" Properties=species:S:1:pos:R:3 Energy=-322807.5625 Energy_pyscf=-322795.3733505723 Energy_nn=-322807.65625 pbc="F F F"
C       46.28276921      51.05936055      50.50971364
C       47.72908743      50.98253959      50.01602333
O       48.26136839      51.71523946      49.19334388
N       48.55325286      49.94088367      50.61200477
C       49.97478575      49.82505621      50.47349816
C       50.71208944      48.88299483      49.73774561
C       51.95149440      49.00528489      49.31891637
C       52.85028746      49.98679851      49.69599883
O       54.23379791      49.94344644      49.74256793
C       52.31428088      51.02855354      50.35417548
C       50.86189077      51.03349394      50.77968759
H       45.67961251      51.28062272      49.59303465
H       46.16588873      52.05546752      51.21595963
H       45.69237118      50.18727957      50.90953709
H       48.26497523      49.46171648      51.45685513
H       50.07609465      47.98428543      49.58515025
H       52.10765501      48.28384854      48.45919680
H       54.49644484      49.30917356      49.12326784
H       52.96792394      51.94894309      50.58269359
H       50.56690146      51.99911298      51.21048166
