20
Lattice="100.0 0.0 0.0 0.0 100.0 0.0 0.0 0.0 100.0" Properties=species:S:1:pos:R:3 Energy=-322799.28125 Energy_pyscf=-322794.5953299808 Energy_nn=-322802.0625 pbc="F F F"
C       46.17429037      50.15889297      49.90148695
C       47.55073140      50.37858221      50.47044377
O       47.69894929      51.38803222      51.26230025
N       48.55180408      49.42677260      50.17500393
C       49.97122232      49.51803394      50.16253538
C       50.56956488      48.79141607      49.11330704
C       51.92810737      48.98331617      48.96605791
C       52.64887829      49.46301249      49.89503329
O       53.97669535      49.47000131      49.73888228
C       52.13327108      50.19853510      51.00676655
C       50.70263554      50.39644650      51.09976067
H       46.01546167      49.00460625      49.58142490
H       46.26130976      50.59907805      48.92257203
H       45.47943161      50.70439735      50.58528079
H       48.26644966      48.65507293      49.59649303
H       49.99438966      48.35515289      48.31616969
H       52.50267328      48.21147594      48.40361151
H       54.36908590      50.42280054      49.77459777
H       52.50810793      51.04365839      51.62542023
H       50.21387031      51.12747758      51.77815683
