20
Lattice="100.0 0.0 0.0 0.0 100.0 0.0 0.0 0.0 100.0" Properties=species:S:1:pos:R:3 Energy=-322805.9375 Energy_pyscf=-322795.38939349964 Energy_nn=-322807.65625 pbc="F F F"
C       46.29305302      51.29176130      50.05590246
C       47.37833856      50.34433853      49.60320353
O       47.29250085      49.14525157      49.45286271
N       48.60975935      50.96701472      49.59226137
C       49.90934087      50.33990958      49.54132420
C       50.23019539      49.03725297      49.48893405
C       51.62814273      48.51932181      49.52256156
C       52.55426306      49.56925533      49.44125145
O       53.98977934      49.49234003      49.60948222
C       52.23538437      50.87905988      49.43807939
C       51.00357559      51.38410522      49.50665581
H       46.71339272      52.31392783      50.14348426
H       45.92387957      51.26028504      51.08687386
H       45.51302046      51.15853211      49.41246932
H       48.59445289      51.76463834      50.15556837
H       49.46826021      48.23097580      49.62916202
H       51.69496814      47.51902191      49.11669189
H       54.31142885      49.11574494      48.80760556
H       52.88026009      51.70419705      49.64772060
H       50.89914071      52.53693077      49.37439233
