20
Lattice="100.0 0.0 0.0 0.0 100.0 0.0 0.0 0.0 100.0" Properties=species:S:1:pos:R:3 Energy=-322808.53125 Energy_pyscf=-322786.9017886164 Energy_nn=-322807.6875 pbc="F F F"
C       46.21073340      50.75853001      50.18156372
C       47.56889218      50.68472063      50.48070586
O       48.18951978      51.55446561      51.09683721
N       48.48140497      49.83364639      49.69532750
C       49.81919902      49.94302746      49.80817452
C       50.63895945      49.21037798      48.84349136
C       51.93862533      49.36484335      48.83663083
C       52.58263555      49.69459785      50.11471035
O       53.90991477      49.70131563      50.09305018
C       51.90746649      50.26289153      51.16318021
C       50.54176427      50.50048100      50.84484432
H       45.84295076      49.64041015      49.88855861
H       45.67591352      51.23384078      49.33952026
H       45.84137373      51.04824494      51.09253158
H       47.91482748      49.21264602      49.04196925
H       50.21536347      48.69244726      47.91739827
H       52.60680440      48.73404584      48.22686830
H       54.38518094      50.11586608      50.80342867
H       52.40753224      50.52703130      52.06894669
H       49.97343726      50.83951562      51.66809013
