20
Lattice="100.0 0.0 0.0 0.0 100.0 0.0 0.0 0.0 100.0" Properties=species:S:1:pos:R:3 Energy=-322805.9375 Energy_pyscf=-322806.34622787865 Energy_nn=-322810.28125 pbc="F F F"
C       46.19247300      50.36567381      50.03041335
C       47.60950680      50.59609539      50.70604694
O       47.88247492      50.88440327      51.88204699
N       48.56173803      50.35571753      49.75378538
C       49.95787622      50.05154198      49.86620805
C       50.63803437      49.27561510      48.85926553
C       51.96697035      49.25506283      48.83868824
C       52.68204798      49.81438379      49.92607783
O       53.99046083      49.52884520      50.32728034
C       52.18623359      50.59441948      50.91041448
C       50.69927810      50.69261323      50.88027040
H       45.67195384      51.33334687      49.89985513
H       45.57986319      50.08464667      50.85299549
H       46.03016973      49.84463675      49.20167950
H       48.21164763      50.19164402      48.81216473
H       50.17458098      48.79523012      47.97181557
H       52.65813208      49.03484675      48.04765305
H       54.37153193      48.69911087      49.88680163
H       52.74066560      50.68022192      51.84849740
H       50.05830647      51.16464156      51.60128159
