20
Lattice="100.0 0.0 0.0 0.0 100.0 0.0 0.0 0.0 100.0" Properties=species:S:1:pos:R:3 Energy=-322845.71875 Energy_pyscf=-322832.5004958877 Energy_nn=-322838.5625 pbc="F F F"
C       46.22347628      50.34452283      50.03446848
C       47.56908242      50.55658322      50.65294295
O       47.86717432      50.91457307      51.77685630
N       48.56096177      50.54141915      49.65575674
C       49.94821376      50.27363517      49.88838701
C       50.57855349      49.39075659      49.02020275
C       51.91126466      49.07961242      49.04337628
C       52.74469334      49.71940309      50.07584073
O       54.08836512      49.55644765      50.09278026
C       52.11779419      50.54701142      51.02902773
C       50.70867885      50.72874820      50.96005694
H       45.60170655      51.19231376      49.96798375
H       45.65368460      49.62254165      50.65959162
H       46.19936776      50.06356268      48.98514236
H       48.16301753      50.25263530      48.77819093
H       50.03288883      49.01457869      48.14693441
H       52.46590369      48.62610878      48.19690039
H       54.29483401      48.80015395      49.53933159
H       52.81274535      50.69162062      51.93409372
H       50.30185294      51.34772535      51.69564165
