20
Lattice="100.0 0.0 0.0 0.0 100.0 0.0 0.0 0.0 100.0" Properties=species:S:1:pos:R:3 Energy=-322789.8125 Energy_pyscf=-322755.3373395148 Energy_nn=-322797.25 pbc="F F F"
C       46.18460184      50.86287861      49.87271418
C       47.74180695      50.72847461      50.33417935
O       48.16057956      51.31646254      51.42245240
N       48.54989051      50.11482685      49.30034732
C       49.86041760      49.75905579      49.95463655
C       50.79012598      49.12793072      48.89214441
C       52.14856455      49.00573235      48.92514523
C       52.72204602      49.70864975      50.05283503
O       54.14572578      49.65872438      50.23245618
C       51.98745098      50.25907437      51.03125736
C       50.53521480      50.26177716      51.01122040
H       45.69177749      51.28657781      49.05852443
H       45.71320968      51.09906915      50.78678224
H       45.66814941      49.85090437      49.91892944
H       47.97863675      49.32739277      49.04908009
H       50.04016251      48.92154632      47.86864625
H       52.72001183      48.35416472      48.26375309
H       54.69077872      50.43084523      50.46125434
H       52.46222840      50.99974183      51.56901573
H       49.95103036      50.90324487      51.53543501
