20
Lattice="100.0 0.0 0.0 0.0 100.0 0.0 0.0 0.0 100.0" Properties=species:S:1:pos:R:3 Energy=-322805.21875 Energy_pyscf=-322805.55060401774 Energy_nn=-322806.6875 pbc="F F F"
C       46.19070862      50.41922557      50.02132960
C       47.63342720      50.52229071      50.77941775
O       47.93254662      50.74164359      51.93908338
N       48.59732978      50.26597929      49.80359586
C       49.96308634      50.11726554      49.92422535
C       50.66380137      49.38477272      49.01019856
C       52.03082060      49.29538698      48.92592792
C       52.80851023      49.84120448      49.94419723
O       54.18359524      49.40885207      50.29836328
C       52.04901107      50.46197122      50.93177779
C       50.70546876      50.57494737      51.01330190
H       45.71967408      51.42706609      49.84729409
H       45.46644125      49.84955384      50.72939855
H       46.11186341      50.06672204      49.02405863
H       48.10117897      50.07789576      48.90862773
H       50.18501010      49.06949862      48.08358858
H       52.44134857      48.66978446      48.13155543
H       54.44303608      48.78099643      49.54160741
H       52.62371550      50.98803629      51.86037697
H       50.01191473      51.31430583      51.41986997
