20
Lattice="100.0 0.0 0.0 0.0 100.0 0.0 0.0 0.0 100.0" Properties=species:S:1:pos:R:3 Energy=-322827.5625 Energy_pyscf=-322823.0836983702 pbc="F F F"
C       46.09272124      50.55350428      50.24230633
C       47.53969079      50.49044612      50.88914230
O       47.76084622      51.00955001      51.97314725
N       48.44064048      49.75323332      50.10965521
C       49.85853142      49.89530244      50.03935558
C       50.59470278      49.11914630      49.14382393
C       52.02119854      49.18389939      49.03186252
C       52.67154079      49.67289175      50.19185271
O       54.02808942      49.28888473      50.36308998
C       52.01112718      50.63473645      51.08052673
C       50.61904778      50.67955292      50.93418851
H       45.94256564      50.04696781      49.29358978
H       45.54674102      51.43973086      50.32405223
H       45.47084889      49.90071364      50.86756407
H       47.91736527      49.26584516      49.39016315
H       50.19914402      48.45202823      48.40997134
H       52.57148874      48.70048311      48.21216623
H       54.24532441      48.45328529      49.84015446
H       52.60934708      51.16997700      51.84270271
H       50.12932159      51.51714868      51.59313310
