20
Lattice="100.0 0.0 0.0 0.0 100.0 0.0 0.0 0.0 100.0" Properties=species:S:1:pos:R:3 Energy=-322820.96875 Energy_pyscf=-322825.8093675536 Energy_nn=-322821.3125 pbc="F F F"
C       46.23302803      50.04095288      50.03574169
C       47.50080930      50.41191717      50.67883911
O       47.78058657      51.41271962      51.28861825
N       48.45555625      49.55325220      50.11281442
C       49.91549717      49.62210732      50.10438415
C       50.53365077      48.76756273      49.01054786
C       51.95474076      48.79427264      48.89945293
C       52.65932766      49.58807038      49.88358918
O       54.05988453      49.60569448      49.74026677
C       52.07305698      50.31183227      50.90459444
C       50.70154673      50.44095277      50.93388535
H       45.94745200      49.05769353      50.19943963
H       46.39935878      50.17621851      48.95267883
H       45.44394462      50.70553415      50.26918215
H       48.07342461      48.99387063      49.36583717
H       49.91373171      48.35613120      48.26100894
H       52.58982930      48.28980017      48.14275765
H       54.61322597      50.11388397      50.34198761
H       52.58234320      50.98000660      51.66688181
H       50.13692854      51.10567773      51.56450575
