21
Lattice="100.0 0.0 0.0 0.0 100.0 0.0 0.0 0.0 100.0" Properties=species:S:1:pos:R:3 Energy=-406247.59375 Energy_pyscf=-406225.2842331113 Energy_nn=-406249.3125 pbc="F F F"
C       52.64346317      49.50180688      49.55288207
C       51.18917768      51.80504966      49.18521921
C       53.06877090      50.37749245      48.51828317
C       52.39297314      51.67820805      48.41966852
C       46.82714588      51.39581344      50.45141418
C       51.25216747      49.62084415      49.97729436
C       50.49481216      50.77846211      49.88803559
O       49.57218238      48.20341635      50.94748420
O       48.44400311      51.86071782      48.59752652
O       51.76650372      47.76038831      51.53144058
C       50.85041441      48.54811961      50.94451655
C       48.20923563      51.53585763      49.75726049
O       49.44263841      50.87300880      50.63999553
H       51.10156214      47.04600613      51.88654421
H       53.24302708      48.49189348      49.73793137
H       50.51522101      52.49845882      48.96507418
H       53.83223535      50.31687684      47.78874075
H       52.82155813      52.44335351      47.87988977
H       46.29215882      52.31518724      50.07927141
H       46.29544315      50.49896058      50.22723832
H       46.77223038      51.34180059      51.62529134
