21
Lattice="100.0 0.0 0.0 0.0 100.0 0.0 0.0 0.0 100.0" Properties=species:S:1:pos:R:3 Energy=-406285.6875 Energy_pyscf=-406275.99847141746 Energy_nn=-406282.59375 pbc="F F F"
C       52.50324606      49.89112483      49.69428143
C       50.80874254      51.98848592      48.73928605
C       53.10920148      50.94971608      48.86488886
C       52.23847680      51.98137035      48.52350506
C       46.81568559      51.16446653      50.18760861
C       51.17168378      49.84329203      50.03791545
C       50.26751006      50.88190886      49.44467124
O       49.54188621      49.11111888      51.74752310
O       48.43784390      52.95026056      50.32723292
O       51.13058284      47.64978580      50.91493269
C       50.53879369      48.85866204      51.02498162
C       48.11425303      51.87418293      49.93040439
O       48.91963138      50.81914629      49.48024814
H       50.57911461      47.08078163      51.49457012
H       53.16001230      49.10337961      50.08542289
H       50.15605029      52.80531358      48.37056815
H       54.15864820      51.03949724      48.42503771
H       52.66078353      52.76198453      48.02807695
H       45.97557079      51.87732802      50.07338995
H       46.60565666      50.35643184      49.43283969
H       46.73270167      50.52977697      51.11244500
