21
Lattice="100.0 0.0 0.0 0.0 100.0 0.0 0.0 0.0 100.0" Properties=species:S:1:pos:R:3 Energy=-406254.28125 Energy_pyscf=-406239.0994446383 Energy_nn=-406256.59375 pbc="F F F"
C       52.43462418      49.55241092      49.61059124
C       51.13350000      51.90344969      49.54507185
C       52.92420647      50.40056801      48.72586017
C       52.20090775      51.63394531      48.69693657
C       46.93980713      51.53772464      50.71112541
C       51.16939000      49.75195047      50.35630452
C       50.49352878      50.93398780      50.19430721
O       49.50816010      47.95830362      50.80177069
O       48.25046637      51.58854789      48.72809352
O       51.51363882      47.72945387      51.75490727
C       50.63603253      48.61324601      51.14133075
C       48.16028252      51.37944802      49.88298666
O       49.28274311      51.23791676      50.74548241
H       51.07511215      46.96598521      52.14867362
H       52.84633963      48.59874403      49.58811184
H       50.68132856      52.91717171      49.83362422
H       53.87602711      50.22078872      48.22376661
H       52.45857034      52.55032257      48.07430069
H       46.31559129      52.17532547      50.21944095
H       46.44300264      50.54887275      50.51654866
H       47.01711159      51.71570628      51.80693315
