21
Lattice="100.0 0.0 0.0 0.0 100.0 0.0 0.0 0.0 100.0" Properties=species:S:1:pos:R:3 Energy=-406290.28125 Energy_pyscf=-406251.11500061065 Energy_nn=-406288.71875 pbc="F F F"
C       52.57648560      49.83625223      49.89832362
C       50.92449430      51.62631350      48.43125801
C       53.18477107      50.78105534      48.95682276
C       52.25005192      51.63191775      48.27371152
C       46.72893923      51.31416086      49.91128835
C       51.18924721      49.77308699      50.10933511
C       50.32538538      50.64585692      49.34525232
O       49.24952288      49.17126308      51.42018093
O       48.67527949      52.48113858      50.58403359
O       51.29145028      47.89241804      51.46537290
C       50.54717729      48.88587906      51.02209266
C       48.28727833      51.53531205      49.92284369
O       48.95219185      50.66085109      49.39780162
H       50.75266950      47.32482198      52.07855332
H       53.27511701      49.17602745      50.46495353
H       50.24482124      52.35923635      47.95522748
H       54.27747560      50.88063226      48.75776004
H       52.72083160      52.31685750      47.56237576
H       46.23678177      50.67764795      50.62405354
H       46.20111585      52.25112986      50.18368937
H       46.35439554      51.08637945      48.94217822
