21
Lattice="100.0 0.0 0.0 0.0 100.0 0.0 0.0 0.0 100.0" Properties=species:S:1:pos:R:3 Energy=-406258.9375 Energy_pyscf=-406265.2033943683 Energy_nn=-406261.15625 pbc="F F F"
C       52.45488644      49.51056892      49.55325814
C       51.14118929      51.92714805      49.52846581
C       52.80165364      50.49061330      48.67518653
C       52.21540376      51.75879243      48.72039788
C       46.93756843      51.43721682      50.69048154
C       51.15701795      49.69181210      50.22056150
C       50.56392814      50.86067789      50.34774342
O       49.42390227      48.16779040      50.85626180
O       48.38472791      51.34119185      48.77440509
O       51.39272184      47.92185353      51.86881451
C       50.55637931      48.54014569      50.93196591
C       48.28213674      51.17150351      49.96103288
O       49.36527639      50.92153853      50.90155318
H       50.96361964      47.10473678      52.17152536
H       52.91918889      48.50816685      49.72464716
H       50.88025595      53.00502754      49.65428573
H       53.61068242      50.35897313      48.03442500
H       52.64681087      52.68332084      48.15235710
H       46.53816372      52.29574347      50.23547079
H       46.27032169      50.58937355      50.54666862
H       46.84691123      51.58392427      51.78947847
