21
Lattice="100.0 0.0 0.0 0.0 100.0 0.0 0.0 0.0 100.0" Properties=species:S:1:pos:R:3 Energy=-406284.3125 Energy_pyscf=-406278.80199577974 Energy_nn=-406281.09375 pbc="F F F"
C       52.41013400      49.45921429      49.41215385
C       50.77961985      51.72329053      48.72476920
C       52.94133675      50.58355897      48.70433651
C       52.19061947      51.63173559      48.32779830
C       46.94372406      51.39291302      50.76358384
C       51.03700282      49.41768952      49.74868153
C       50.32530062      50.67978647      49.54733792
O       49.14040373      48.17652147      50.61640097
O       47.65037051      51.59230574      48.47575081
O       51.16796597      47.85195715      51.56480316
C       50.32455608      48.37262316      50.61938545
C       47.86726732      51.23372217      49.61701912
O       49.12909166      50.76999895      50.19701194
H       50.63275059      47.14684844      52.06018650
H       52.88312165      48.51145758      49.43116836
H       50.16930468      52.55824499      48.27820196
H       53.91333829      50.40703608      48.28164970
H       52.62164458      52.50957707      47.80247413
H       47.05446112      52.35123901      51.22728128
H       45.89568679      51.19844350      50.39189556
H       47.12173018      50.67424722      51.60781658
