21
Lattice="100.0 0.0 0.0 0.0 100.0 0.0 0.0 0.0 100.0" Properties=species:S:1:pos:R:3 Energy=-406276.59375 Energy_pyscf=-406271.9751190545 Energy_nn=-406276.1875 pbc="F F F"
C       52.18644405      49.44421459      49.26172526
C       51.30466736      52.08812354      49.00830142
C       53.01876823      50.43735074      48.78180168
C       52.61818508      51.71495727      48.61821273
C       47.14155428      50.97672763      50.94183315
C       51.00440015      49.72678998      49.90203104
C       50.54571425      51.01872918      49.59340794
O       49.40831765      49.01094584      51.60583062
O       47.79307253      50.48481292      48.63195560
O       50.96477119      47.49686968      51.15534070
C       50.39606516      48.76359099      50.94732768
C       48.04108770      50.80854455      49.77591021
O       49.35395811      51.35328143      50.19639437
H       50.37108230      46.98882935      51.69675244
H       52.49755627      48.43723061      49.26093969
H       50.95736840      53.06817603      48.73814639
H       54.00190989      49.98594805      48.53912383
H       53.32566145      52.47842283      48.22489825
H       46.08562749      50.79371284      50.63521428
H       47.27398502      50.08799210      51.55106603
H       47.17983023      51.95715679      51.50070878
