21
Lattice="100.0 0.0 0.0 0.0 100.0 0.0 0.0 0.0 100.0" Properties=species:S:1:pos:R:3 Energy=-406244.8125 Energy_pyscf=-406234.51717266603 Energy_nn=-406249.59375 pbc="F F F"
C       52.54325062      49.82322667      49.98110162
C       50.78176363      51.41722261      48.41341457
C       53.12801756      50.84018184      49.08728614
C       52.24392389      51.56947068      48.37535354
C       46.78659085      51.51484053      49.91882057
C       51.13008628      49.77509769      50.00073037
C       50.23123866      50.59535122      49.18858740
O       49.69085136      49.14605093      51.85182045
O       48.84882216      52.45114242      50.76769468
O       51.36627987      47.74217903      51.40130077
C       50.60743514      48.83972641      51.10087345
C       48.24445185      51.72800174      50.00740549
O       48.88187203      50.70510440      49.48025909
H       50.72386745      47.30497247      51.98877109
H       53.24061185      49.13875229      50.15114725
H       50.10279915      52.01023827      47.76006494
H       54.15479411      51.10683599      48.98281989
H       52.50422757      52.37398082      47.62345289
H       46.20324977      50.52070292      50.26723753
H       46.27334107      52.43773364      50.10682794
H       46.58110848      51.27589217      48.85801452
