21
Lattice="100.0 0.0 0.0 0.0 100.0 0.0 0.0 0.0 100.0" Properties=species:S:1:pos:R:3 Energy=-406288.90625 Energy_pyscf=-406276.0428453498 Energy_nn=-406282.5625 pbc="F F F"
C       52.33868052      49.48490202      49.99434108
C       51.07815911      52.02256018      49.46801593
C       52.94313410      50.51755334      49.15124896
C       52.31563668      51.73038281      48.81018905
C       46.77670135      51.15097907      51.05362336
C       51.02142634      49.66519405      50.45884547
C       50.43683839      50.96407446      50.16912883
O       49.11510106      48.75728228      51.85622338
O       47.71292065      50.50032020      48.91191913
O       50.88798125      47.47607318      51.21349470
C       50.21686663      48.64929715      51.15262222
C       47.88728880      50.86295722      50.04553246
O       49.16879255      51.19066125      50.68468396
H       50.41056115      46.85716411      51.80932900
H       52.90082755      48.66528995      50.33405507
H       50.69161810      53.05079620      49.18485472
H       53.89398361      50.23877279      48.76122195
H       52.75247332      52.42910126      48.12158120
H       46.77357166      50.34299313      51.69082990
H       47.08767815      51.96858468      51.75357508
H       45.85388941      51.37762229      50.54489956
