21
Lattice="100.0 0.0 0.0 0.0 100.0 0.0 0.0 0.0 100.0" Properties=species:S:1:pos:R:3 Energy=-406266.25 Energy_pyscf=-406254.37292068085 Energy_nn=-406264.84375 pbc="F F F"
C       52.22028718      49.59536674      49.88665195
C       50.84407854      51.94178630      49.32909672
C       52.87746351      50.64169203      49.22143711
C       52.19785402      51.78674620      48.92427190
C       47.01978354      51.15106627      51.27385811
C       50.93779422      49.89008944      50.63938747
C       50.37663959      51.13162193      50.24978875
O       49.13355695      49.06822541      51.66933188
O       47.84894659      51.21211228      48.99908280
O       50.97990573      47.72969087      51.65965323
C       50.25988450      48.82832809      51.34261824
C       47.98989358      51.36341433      50.18178662
O       49.27713120      51.49938053      50.94498824
H       50.39347346      46.99558671      51.90024312
H       52.73900151      48.59455500      50.07401586
H       50.17624883      52.49566994      48.78606041
H       54.04143736      50.68007793      49.04269226
H       52.68912255      52.40256997      48.07339114
H       46.01173525      51.00264733      50.85285722
H       47.39163357      50.18803530      51.68627058
H       46.93594116      51.92536947      52.04908950
