21
Lattice="100.0 0.0 0.0 0.0 100.0 0.0 0.0 0.0 100.0" Properties=species:S:1:pos:R:3 Energy=-406243.78125 Energy_pyscf=-406214.1198790592 Energy_nn=-406252.71875 pbc="F F F"
C       52.62202087      49.53414122      49.59552888
C       51.10051008      51.80956805      49.11667972
C       53.01274174      50.51183130      48.66318635
C       52.28144835      51.62820834      48.39013294
C       46.92758524      51.46543430      50.44938064
C       51.22398405      49.60931479      50.10507030
C       50.48859769      50.73167316      49.97308667
O       49.48831731      48.25084752      50.72601258
O       48.38707501      51.59033697      48.53255570
O       51.70868151      47.82612007      51.55705482
C       50.64963446      48.37010782      50.72275657
C       48.30276104      51.11746224      49.81871358
O       49.28929166      50.93976434      50.53364574
H       51.26521589      46.90384569      51.84245063
H       53.16163331      48.60968323      49.67076973
H       50.62325374      52.87357562      48.94850913
H       53.91896055      50.34146910      47.96165293
H       52.87513138      52.31961098      47.93555466
H       46.24361176      52.09949579      49.92020577
H       46.51127925      50.51289283      50.67735344
H       46.94732314      51.78059226      51.49931224
