21
Lattice="100.0 0.0 0.0 0.0 100.0 0.0 0.0 0.0 100.0" Properties=species:S:1:pos:R:3 Energy=-406240.71875 Energy_pyscf=-406234.82415237353 Energy_nn=-406245.71875 pbc="F F F"
C       52.52399231      49.76321235      49.82611155
C       50.74351283      51.49747319      48.26106086
C       53.09161480      50.78947864      49.02786900
C       52.25088086      51.47804646      48.12645929
C       46.85894998      51.35253702      49.97820248
C       51.06417725      49.74673628      50.03342567
C       50.21240535      50.58804165      49.18830136
O       49.53612574      49.20716692      51.51814334
O       48.69823113      52.29701482      50.99800395
O       51.35363697      47.89424474      51.57042033
C       50.55765753      48.82616606      50.98277623
C       48.24251684      51.54417839      50.26679828
O       48.93283019      50.65863841      49.36921595
H       51.06373132      47.45999330      52.30254738
H       53.06559686      49.11862277      50.44854995
H       50.15917977      52.39545686      47.94411137
H       54.25781539      51.02198306      49.09984800
H       52.79216208      52.26353216      47.74700784
H       46.33287247      50.49757615      50.24372051
H       46.23335702      52.31410720      50.23325228
H       46.85531518      51.42826582      48.94329603
