21
Lattice="100.0 0.0 0.0 0.0 100.0 0.0 0.0 0.0 100.0" Properties=species:S:1:pos:R:3 Energy=-406266.0625 Energy_pyscf=-406257.38880881225 Energy_nn=-406263.46875 pbc="F F F"
C       52.59894455      49.56088188      49.52285132
C       51.18742267      51.96058343      49.28906580
C       53.07731896      50.42057992      48.59471610
C       52.34638428      51.71449165      48.57300944
C       46.91281105      51.39579624      50.42346429
C       51.31230303      49.58360979      49.97983049
C       50.41881313      50.80188146      49.83437111
O       49.64343272      48.27835869      51.19163561
O       48.34039534      51.70674259      48.46455116
O       51.66151077      47.57190638      51.45280575
C       50.79280088      48.52650743      50.88397099
C       48.15632605      51.42261333      49.64043891
O       49.19179373      50.87142056      50.46435160
H       51.05873079      46.98410537      51.90389725
H       53.19094655      48.63486284      49.61347718
H       50.59404494      52.79740959      49.04567934
H       53.88783228      50.22841242      47.92464398
H       52.84478718      52.31342987      47.79490842
H       46.13284699      52.19988378      50.19579425
H       46.33370330      50.41862564      50.37492593
H       47.35241623      51.44683154      51.47129448
