21
Lattice="100.0 0.0 0.0 0.0 100.0 0.0 0.0 0.0 100.0" Properties=species:S:1:pos:R:3 Energy=-406257.6875 Energy_pyscf=-406243.49359964696 Energy_nn=-406256.34375 pbc="F F F"
C       52.32957015      49.33941327      49.45598183
C       51.35350612      52.01129367      49.62711740
C       52.89394438      50.36900727      48.78566598
C       52.39432451      51.83745062      48.72889685
C       46.87107815      51.37036611      50.72835534
C       51.24715676      49.65129169      50.25422114
C       50.56341488      50.96194175      50.13082827
O       49.55626369      47.87772382      50.58520821
O       48.12131631      51.73687477      48.71560154
O       51.31029238      48.11278062      51.99885547
C       50.56241201      48.57105487      51.00229318
C       48.04049220      51.38949330      49.80505038
O       49.27196012      51.03387696      50.58850213
H       50.81889138      47.28101230      52.28725751
H       52.78907904      48.38338094      49.70353092
H       50.90221669      52.96148045      49.69687566
H       53.65785306      50.28378054      48.07460648
H       52.78423121      52.69130312      48.15635143
H       46.10419064      52.12011901      50.36422564
H       46.60693566      50.23467423      50.74184315
H       47.18338312      51.65055258      51.87182732
