21
Lattice="100.0 0.0 0.0 0.0 100.0 0.0 0.0 0.0 100.0" Properties=species:S:1:pos:R:3 Energy=-406287.375 Energy_pyscf=-406285.32882125577 Energy_nn=-406287.46875 pbc="F F F"
C       52.36858058      49.42608304      49.68472293
C       51.22875317      52.03728714      49.39630266
C       53.01343692      50.37344137      49.00678625
C       52.32632236      51.59609348      48.74128170
C       46.93868467      51.45671771      50.91610176
C       51.09903629      49.72070312      50.27375847
C       50.55987663      51.01150428      50.15041376
O       49.15657753      48.63039635      51.26952002
O       48.01527319      50.19467162      49.13851642
O       51.17778195      47.57094028      51.46948458
C       50.33547254      48.57243366      50.97928818
C       48.11206114      50.90044982      50.13717186
O       49.34164308      51.36206457      50.71780933
H       50.57396040      46.98519899      51.98293742
H       52.73820506      48.42755166      49.83771551
H       50.78436178      53.03760931      49.31407800
H       53.99487681      50.06499562      48.54853548
H       52.95010159      52.19218659      47.98377681
H       46.00872823      51.31738081      50.28659735
H       46.85135168      50.72446960      51.75536310
H       47.11493323      52.54541431      51.25647607
