21
Lattice="100.0 0.0 0.0 0.0 100.0 0.0 0.0 0.0 100.0" Properties=species:S:1:pos:R:3 Energy=-406275.78125 Energy_pyscf=-406265.5310198414 Energy_nn=-406276.8125 pbc="F F F"
C       52.41042911      49.40535258      49.59818089
C       51.37414426      51.87746319      49.36637343
C       53.17510959      50.32422771      48.92638786
C       52.57645273      51.59500258      48.82993274
C       46.89075538      51.30924383      50.76651851
C       51.23078731      49.70306604      50.40423275
C       50.59222961      50.86762910      50.12240332
O       49.67639508      49.03930922      52.23741236
O       48.07749272      49.86136677      49.19834970
O       50.91904671      47.50569048      51.14946138
C       50.49525927      48.76736855      51.25762617
C       48.15939932      50.68466527      50.05421483
O       49.41415174      51.15682983      50.65880412
H       50.62983446      47.09150777      52.00138067
H       52.71433518      48.39016832      49.84772446
H       51.09095303      52.96565972      49.26357331
H       54.02004779      49.93476763      48.39051605
H       53.00685461      52.25593613      48.11778279
H       47.09231478      51.66935529      51.83083928
H       46.64945921      52.24617689      50.25551671
H       46.11806895      50.56703924      50.55917146
