21
Lattice="100.0 0.0 0.0 0.0 100.0 0.0 0.0 0.0 100.0" Properties=species:S:1:pos:R:3 Energy=-406246.0625 Energy_pyscf=-406221.31850740116 Energy_nn=-406248.78125 pbc="F F F"
C       52.20151210      50.20943823      50.60383627
C       50.66308931      51.21162801      48.39436033
C       52.84473370      50.87755053      49.61611643
C       52.12172703      51.36743194      48.46771093
C       46.92099348      50.80945562      50.79163748
C       50.81627591      49.87759729      50.43522727
C       50.05838575      50.65182690      49.43005653
O       49.04640310      48.58938910      51.13755652
O       48.65251690      52.38470483      51.13716499
O       50.95164945      48.32008584      52.22287654
C       50.27694781      48.87827123      51.19485371
C       48.32446823      51.32878254      50.71269537
O       48.82987998      50.58988333      49.58113147
H       50.55336576      47.43881425      52.32481649
H       52.74625045      50.10353548      51.52556775
H       50.05561653      51.98934256      47.83903150
H       54.06186453      50.83483910      49.52121082
H       52.63719191      52.04976403      47.80909828
H       46.62023390      50.55640521      51.88795234
H       46.33347955      51.80215819      50.54351221
H       46.86097908      49.92173252      50.34190234
