21
Lattice="100.0 0.0 0.0 0.0 100.0 0.0 0.0 0.0 100.0" Properties=species:S:1:pos:R:3 Energy=-406266.6875 Energy_pyscf=-406267.8855618581 Energy_nn=-406267.6875 pbc="F F F"
C       52.26367273      50.32052575      50.50097744
C       50.64511702      51.65913672      48.54543817
C       52.85665910      50.99206010      49.41059506
C       51.99342367      51.68553390      48.50160393
C       46.48538914      51.12922425      50.64309897
C       50.78485183      50.23635910      50.61990305
C       50.05423060      50.92812571      49.64104937
O       49.13252240      49.24677495      52.00950255
O       48.60520718      52.23685791      51.31948432
O       50.85836477      47.96779852      51.67546443
C       50.21554731      49.12895171      51.42949569
C       48.06724306      51.43915648      50.63988148
O       48.63950394      50.90392438      49.57015198
H       50.31253263      47.56178811      52.33115955
H       52.75639004      49.77926347      51.24776235
H       50.04750592      52.37831341      47.98054992
H       53.94699521      50.95472340      49.23122526
H       52.54599372      52.05139365      47.63832263
H       46.25086650      49.95566159      50.60013425
H       45.99821351      51.57900210      51.53405610
H       45.96363495      51.56313880      49.88047785
