21
Lattice="100.0 0.0 0.0 0.0 100.0 0.0 0.0 0.0 100.0" Properties=species:S:1:pos:R:3 Energy=-406263.34375 Energy_pyscf=-406253.0256315053 Energy_nn=-406266.9375 pbc="F F F"
C       52.39448598      49.46444668      49.55164082
C       51.23667409      52.09911060      49.70164366
C       52.76794346      50.44153611      48.63661623
C       52.19200166      51.79824828      48.68650177
C       46.98408953      51.40000755      50.71786986
C       51.24219782      49.70208668      50.27187469
C       50.60580202      51.04320969      50.28526591
O       49.44669679      48.16160270      50.90768274
O       48.36008540      51.52554572      48.86426799
O       51.44657609      47.72946161      51.74155425
C       50.64702005      48.62921593      51.07279686
C       48.23449198      51.22945108      49.97526904
O       49.33249703      51.01286440      50.88604109
H       50.82960911      47.11689268      52.15960649
H       52.84588505      48.45380116      49.64000322
H       50.82597449      53.08741571      49.67123571
H       53.67679452      50.18346648      48.21299765
H       52.50239096      52.65273912      48.02312282
H       46.51890218      52.11835220      50.03974060
H       46.31442771      50.44749380      50.49422431
H       46.95995361      51.60440613      51.76791971
