21
Lattice="100.0 0.0 0.0 0.0 100.0 0.0 0.0 0.0 100.0" Properties=species:S:1:pos:R:3 Energy=-406277.96875 Energy_pyscf=-406274.8379707737 Energy_nn=-406279.53125 pbc="F F F"
C       52.16276517      49.95462398      50.05757670
C       50.66687509      51.50095799      48.28060532
C       52.77460348      50.75224495      49.06109913
C       52.03559432      51.49146452      48.22987130
C       46.53441850      51.26102937      50.25409404
C       50.77769212      49.73948333      50.04656588
C       50.01996331      50.63610006      49.20603888
O       49.05539154      48.74749995      51.26887377
O       48.64443396      52.02471313      51.14220307
O       51.19386789      48.35482012      51.81225046
C       50.22488003      48.81939824      51.00063288
C       48.06831643      51.44273829      50.24890297
O       48.69262026      50.69592793      49.24324899
H       50.81034394      47.68754081      52.31685313
H       52.70080049      49.46372244      50.84560121
H       50.12594835      52.32879285      47.73550071
H       53.87523516      50.57460832      49.14016819
H       52.61005801      52.01360223      47.53992809
H       46.22405800      50.25092896      50.62856427
H       46.09019863      52.03376698      50.88551323
H       46.28853274      51.37332151      49.21059122
