21
Lattice="100.0 0.0 0.0 0.0 100.0 0.0 0.0 0.0 100.0" Properties=species:S:1:pos:R:3 Energy=-406262.4375 Energy_pyscf=-406261.1883260931 Energy_nn=-406260.0625 pbc="F F F"
C       52.44739727      49.64458717      49.92946834
C       50.82578870      51.45723312      48.47174438
C       53.15128726      50.51465730      49.18340100
C       52.28691308      51.51544493      48.49133845
C       46.77657937      50.57234254      50.36517547
C       50.94376353      49.65219850      50.04686157
C       50.27665197      50.57784742      49.31942109
O       51.03142675      47.92532123      51.51414049
O       48.40906906      52.30439190      50.58673577
O       49.16166130      49.15934951      51.66294016
C       50.37946473      48.81002741      51.06501727
C       48.08213865      51.23263774      50.06218548
O       48.88062301      50.37984405      49.28558249
H       48.93002409      48.46007703      52.35727603
H       53.05055675      48.90342315      50.38306448
H       50.11946666      51.96357527      47.83479748
H       54.23313253      50.54258308      49.01033252
H       52.98273921      52.01493571      47.70622354
H       46.56739668      49.53669398      49.98014815
H       46.96980135      50.28321082      51.44485185
H       45.93511280      51.21632799      50.24839724
