21
Lattice="100.0 0.0 0.0 0.0 100.0 0.0 0.0 0.0 100.0" Properties=species:S:1:pos:R:3 Energy=-406269.09375 Energy_pyscf=-406269.7900690452 Energy_nn=-406269.5 pbc="F F F"
C       52.38150736      49.58123999      50.05243843
C       51.11400083      52.06008344      49.47342912
C       52.89810291      50.47416538      49.16447598
C       52.24327403      51.68081359      48.80476083
C       46.81089502      51.07985989      50.93125812
C       51.06942626      49.78014571      50.65629288
C       50.42711894      51.08559092      50.31091251
O       49.39550118      48.82165349      52.11532412
O       48.08313523      50.58023126      48.96804834
O       50.72221849      47.45267873      51.03055516
C       50.25606535      48.69522362      51.22138817
C       48.08233730      50.91360027      50.15933715
O       49.18851544      51.19292990      50.95219131
H       50.12727751      46.96754047      51.63643962
H       52.74920567      48.61765732      50.23971982
H       50.48462359      52.97285650      49.04778569
H       53.85821072      50.21898781      48.65075581
H       52.69177394      52.34366000      48.06667029
H       46.77293712      50.31448957      51.63768948
H       47.03951266      51.94435663      51.65882108
H       45.88576279      51.12333999      50.41043207
