21
Lattice="100.0 0.0 0.0 0.0 100.0 0.0 0.0 0.0 100.0" Properties=species:S:1:pos:R:3 Energy=-406289.15625 Energy_pyscf=-406277.09770700644 Energy_nn=-406284.0 pbc="F F F"
C       52.20709721      49.47448534      49.45249140
C       51.37834677      52.06473838      49.09135394
C       52.98041960      50.39214311      48.71985347
C       52.55667772      51.66863272      48.52497843
C       47.02588656      51.02425555      50.91269995
C       51.02669498      49.76654146      50.02385172
C       50.54959954      51.03076547      49.73895633
O       49.39783726      49.02127009      51.51931316
O       48.05110579      50.22275446      48.81556904
O       50.99960837      47.66144893      50.94110835
C       50.32709575      48.78029848      50.81658484
C       48.18338941      50.80132520      49.87784448
O       49.37284195      51.45028779      50.34715100
H       50.44767789      47.02420049      51.42538874
H       52.52880857      48.44479176      49.60587719
H       50.93686983      53.04521449      48.94616251
H       53.89694233      49.92507431      48.33220660
H       53.23698092      52.40858793      47.99669032
H       46.04548670      50.90739011      50.38668216
H       47.19888339      50.20529097      51.63053873
H       47.09431133      51.85491914      51.44009827
