21
Lattice="100.0 0.0 0.0 0.0 100.0 0.0 0.0 0.0 100.0" Properties=species:S:1:pos:R:3 Energy=-406238.09375 Energy_pyscf=-406219.71390981035 Energy_nn=-406250.71875 pbc="F F F"
C       52.58506255      49.79489695      49.75302581
C       50.86701974      51.40542845      48.32105719
C       53.16521561      50.83478478      49.06565064
C       52.13659202      51.67405190      48.41810936
C       46.62896297      51.58660509      50.05160934
C       51.18795962      49.84079703      50.09035327
C       50.25084594      50.60842214      49.27741205
O       49.45543150      48.80492641      51.23942874
O       48.73907204      52.27192943      50.79112149
O       51.35531293      47.88161872      51.60836835
C       50.61923184      48.84061785      51.00215682
C       48.19408299      51.61400349      49.89832115
O       48.89532274      50.47764247      49.23493354
H       50.73721230      47.72769391      52.31863554
H       53.27774902      49.01920634      50.04028455
H       50.23317903      51.99191574      47.65647542
H       54.13384581      51.14150337      48.97278744
H       52.73474354      52.37302045      47.84598162
H       46.18593079      50.72060887      50.54712284
H       46.27033177      52.50455829      50.25406249
H       46.61322992      51.18781444      48.89300745
