21
Lattice="100.0 0.0 0.0 0.0 100.0 0.0 0.0 0.0 100.0" Properties=species:S:1:pos:R:3 Energy=-406255.75 Energy_pyscf=-406248.3533430499 Energy_nn=-406254.40625 pbc="F F F"
C       52.21396130      49.16931673      48.95213492
C       51.22116931      51.66323997      49.01921217
C       52.89225872      50.20469140      48.41193040
C       52.46820131      51.48913243      48.52252355
C       46.97678852      51.16262971      50.24587535
C       50.94277306      49.35753227      49.56970927
C       50.52225015      50.64170833      49.62157158
O       50.68402183      47.12338577      50.13227102
O       48.30729951      49.97905825      48.76446175
O       49.91233698      48.75390232      51.70651834
C       50.37410940      48.23325542      50.45255138
C       48.31301036      50.80718764      49.71853873
O       49.42431553      51.04673953      50.29676487
H       49.62692692      48.06598705      52.31373792
H       52.52954840      48.15473371      49.09246375
H       50.61562378      52.64001644      48.89836289
H       53.82472671      49.83002745      47.79373591
H       52.80147967      52.17025299      47.71535266
H       46.41688942      50.24704436      50.47014832
H       46.96515359      51.59115218      51.19524170
H       46.45368718      51.79341514      49.50740464
