21
Lattice="100.0 0.0 0.0 0.0 100.0 0.0 0.0 0.0 100.0" Properties=species:S:1:pos:R:3 Energy=-406245.125 Energy_pyscf=-406226.4930844975 Energy_nn=-406250.4375 pbc="F F F"
C       52.49448714      49.26111170      49.95076067
C       51.02809298      51.46172927      49.24913218
C       53.15609940      50.20672350      49.08415717
C       52.39243684      51.28594481      48.86761955
C       46.84580570      50.57072108      50.70543863
C       51.09969550      49.37637513      50.27609265
C       50.45985447      50.48374050      50.03776245
O       51.46467689      47.51040808      51.50888587
O       47.94075483      51.72742615      48.90244995
O       49.26747561      48.41933573      51.16351307
C       50.65036832      48.39322484      51.07291129
C       48.01362090      51.05894731      49.90432652
O       49.28057234      50.86144999      50.66110465
H       49.05634036      47.71145618      51.82856646
H       53.15215605      48.56583024      50.37472089
H       50.37118747      52.34769021      48.75277178
H       54.01891564      49.98128717      48.50752034
H       53.01885438      52.00779816      48.51145024
H       45.91817436      50.48831780      50.24095470
H       47.27302083      49.70176342      51.24143018
H       46.78638781      51.45710698      51.37708342
