21
Lattice="100.0 0.0 0.0 0.0 100.0 0.0 0.0 0.0 100.0" Properties=species:S:1:pos:R:3 Energy=-406287.125 Energy_pyscf=-406284.7524008154 Energy_nn=-406287.125 pbc="F F F"
C       52.40160506      49.42207614      49.68708493
C       51.12378617      51.89014188      49.42848066
C       53.02444710      50.35152655      48.82000618
C       52.34997497      51.59270965      48.76460779
C       46.94313721      51.55121354      50.85135828
C       51.12338094      49.62438016      50.27226309
C       50.46982328      50.84519385      50.14532063
O       49.25750791      48.51543113      51.33893119
O       47.93325499      50.52905129      48.95730165
O       51.31697035      47.59613256      51.58468440
C       50.48465422      48.55977809      51.10394646
C       48.02569227      50.97196894      50.04674069
O       49.29597278      51.21761939      50.69179362
H       50.83002131      46.99317261      52.19820696
H       52.84597518      48.41374938      49.79244514
H       50.65705382      52.92601199      49.35115926
H       53.94743588      50.00546623      48.48603842
H       52.87788155      52.33245198      48.08505221
H       45.99770151      51.67642066      50.19909472
H       46.54311405      50.71217861      51.49370778
H       47.35051544      52.36809408      51.49977136
