21
Lattice="100.0 0.0 0.0 0.0 100.0 0.0 0.0 0.0 100.0" Properties=species:S:1:pos:R:3 Energy=-406291.4375 Energy_pyscf=-406281.4418706607 Energy_nn=-406288.3125 pbc="F F F"
C       52.60209713      49.94392622      49.92338789
C       50.86813498      51.43675846      48.25488993
C       53.10568476      50.88194540      49.04563411
C       52.20907056      51.66208917      48.21265942
C       46.73515671      51.44071904      49.89072362
C       51.20086264      49.86183021      50.10188108
C       50.29527729      50.56336901      49.23747647
O       49.39406993      49.07027339      51.53817326
O       48.79208912      52.01779710      50.97856447
O       51.38064135      47.88385967      51.48082811
C       50.53249729      48.96468194      51.13310188
C       48.24511506      51.36947693      50.05233378
O       48.91103064      50.47493336      49.31400703
H       50.77978311      47.45710540      52.16599523
H       53.22774183      49.11229463      50.33224395
H       50.17464395      52.03261915      47.64225671
H       54.15005297      51.04729991      48.91875143
H       52.67462227      52.37041087      47.57850281
H       46.06979057      50.68784404      50.34559651
H       46.34500013      52.42413556      50.34063834
H       46.60331380      51.60079673      48.82482460
