21
Lattice="100.0 0.0 0.0 0.0 100.0 0.0 0.0 0.0 100.0" Properties=species:S:1:pos:R:3 Energy=-406286.1875 Energy_pyscf=-406264.5434877956 Energy_nn=-406278.28125 pbc="F F F"
C       52.39033866      49.48941119      49.64522568
C       51.05500180      51.92533191      49.45924063
C       52.89396634      50.39727634      48.71327284
C       52.30256440      51.67710188      48.79017376
C       46.92794953      51.53263912      50.74281070
C       51.20640632      49.65849001      50.34369204
C       50.48408185      50.90518389      50.04594850
O       49.58339297      47.84166959      50.75308714
O       48.18756588      51.72697715      48.74908695
O       51.58876369      47.85400555      51.89237550
C       50.69771634      48.49072368      51.02463255
C       48.13930594      51.45535207      49.87220068
O       49.26553879      50.97483106      50.67128658
H       51.12381029      47.02500505      52.20321583
H       52.92138797      48.54874949      49.71070066
H       50.60721042      52.90550401      49.56252065
H       53.81802475      50.20527644      48.28744974
H       52.54226044      52.63820632      48.18341098
H       46.27945531      52.38105617      50.41284774
H       46.26845833      50.68845914      50.48994396
H       47.09518224      51.55013088      51.79023539
