21
Lattice="100.0 0.0 0.0 0.0 100.0 0.0 0.0 0.0 100.0" Properties=species:S:1:pos:R:3 Energy=-406239.6875 Energy_pyscf=-406226.2605854814 Energy_nn=-406249.53125 pbc="F F F"
C       52.47679542      49.62571049      49.74250550
C       50.71998835      51.57718984      48.50597378
C       52.96126446      50.75457433      48.90274674
C       52.19172428      51.72039117      48.29078615
C       46.68339945      50.50932516      50.14026221
C       51.21735627      49.36312574      49.79198550
C       50.27655230      50.25204417      48.97875353
O       50.63258515      48.90619367      52.20598231
O       48.29473734      52.36039470      49.94063888
O       49.47675125      47.76346018      50.65914834
C       50.51759089      48.64517549      51.03683187
C       47.99267664      51.12544661      49.79393429
O       48.78459006      50.07378712      49.10546188
H       49.03849296      47.56566416      51.50493782
H       53.23482503      49.09559707      50.28178753
H       50.01620773      52.41829261      48.51806272
H       53.96989031      51.13575047      48.72784746
H       52.54863890      52.63296024      47.87004464
H       46.58581576      49.87687976      49.25606411
H       46.55648439      49.69471514      50.92174573
H       45.99756658      51.23543283      50.33489389
