21
Lattice="100.0 0.0 0.0 0.0 100.0 0.0 0.0 0.0 100.0" Properties=species:S:1:pos:R:3 Energy=-406236.75 Energy_pyscf=-406225.870295291 Energy_nn=-406242.96875 pbc="F F F"
C       52.42759430      49.47412296      49.58680134
C       51.11232829      52.02432091      49.61111121
C       52.72721230      50.41434993      48.62627817
C       52.21686301      51.64780142      48.67177082
C       46.84483325      51.45646454      50.67736289
C       51.30449345      49.75780743      50.23641884
C       50.59671875      50.91837801      50.33642434
O       49.68467314      48.04967795      50.74687615
O       48.38562537      52.17163411      48.83627241
O       51.51689374      47.82445290      51.88468501
C       50.66252750      48.59908774      51.07337710
C       48.14877853      51.50176724      49.81602804
O       49.27015225      50.98930394      50.72197593
H       51.07007634      46.99629630      52.20136869
H       52.95365809      48.44941297      49.87408247
H       50.70061011      52.94088431      49.59359518
H       53.69964038      50.11073580      48.22206629
H       52.51729777      52.43947737      48.01925669
H       46.33657708      52.25641235      50.36617664
H       46.23129435      50.51791336      50.49637485
H       47.00438193      51.28520292      51.73151408
