21
Lattice="100.0 0.0 0.0 0.0 100.0 0.0 0.0 0.0 100.0" Properties=species:S:1:pos:R:3 Energy=-406256.3125 Energy_pyscf=-406248.7422873095 Energy_nn=-406260.78125 pbc="F F F"
C       52.64839906      49.75468619      49.76488694
C       50.82618434      51.35746338      48.40120793
C       53.16478371      50.89044235      49.19755666
C       52.22027021      51.62368112      48.41072561
C       46.65998118      51.59071371      49.83944279
C       51.27086722      49.79435260      50.05475995
C       50.23276860      50.46823105      49.26234464
O       49.56042364      48.89214904      51.47563202
O       48.67509802      52.20165264      51.09053319
O       51.63060703      47.85534185      51.62204154
C       50.71615553      48.87064638      51.07244478
C       48.17413473      51.47938997      50.23975364
O       48.88074496      50.44942735      49.49798818
H       50.93444435      47.51360924      52.26591148
H       53.31176585      48.85095252      49.98634502
H       50.23503726      51.87449873      47.80497516
H       54.14269024      51.32669177      49.09818688
H       52.67450100      52.37772847      47.85496188
H       45.98466996      50.91823089      50.44501132
H       46.44329656      52.61445116      49.92231134
H       46.43050581      51.43881084      48.80463116
