21
Lattice="100.0 0.0 0.0 0.0 100.0 0.0 0.0 0.0 100.0" Properties=species:S:1:pos:R:3 Energy=-406292.59375 Energy_pyscf=-406280.0799758934 Energy_nn=-406286.96875 pbc="F F F"
C       52.32342310      49.56480248      49.99585953
C       51.10391029      51.99006217      49.51180391
C       52.99998564      50.48994730      49.12023042
C       52.29137815      51.64003678      48.79234617
C       46.79502942      51.10067900      51.00675578
C       51.03807732      49.81937455      50.56730896
C       50.41367486      51.08243559      50.23838042
O       49.38240580      48.85575781      52.03617275
O       47.98396268      50.50630988      49.02635806
O       50.60495705      47.42529045      50.95307762
C       50.29695798      48.71942516      51.19707368
C       47.99410311      50.90974821      50.12355191
O       49.17404293      51.23512752      50.83936147
H       50.15025579      46.93505580      51.64013966
H       52.88539473      48.70040011      50.32538559
H       50.62652514      52.91656714      49.10837015
H       53.90625992      50.21068708      48.61935265
H       52.80152898      52.35908110      48.14832448
H       46.80912513      50.35823072      51.78066744
H       46.79239280      52.03999522      51.65640409
H       45.88904266      50.99745907      50.49897112
