21
Lattice="100.0 0.0 0.0 0.0 100.0 0.0 0.0 0.0 100.0" Properties=species:S:1:pos:R:3 Energy=-406245.0625 Energy_pyscf=-406230.1952450729 Energy_nn=-406248.0625 pbc="F F F"
C       52.47679320      49.38586809      49.32338623
C       51.16036371      51.85824653      49.14846590
C       52.99191454      50.39580496      48.56476242
C       52.45477657      51.64629152      48.59458753
C       46.91369167      51.39041216      50.52138634
C       51.32552772      49.67206431      49.93242360
C       50.52554244      50.82161022      49.79798904
O       49.78818454      47.91275186      50.38966398
O       48.53877114      51.63072164      48.57693426
O       51.50338226      47.93114439      51.78739896
C       50.62627890      48.56554180      50.92645997
C       48.19639761      51.38710359      49.66990650
O       49.32935394      50.94290543      50.37399098
H       51.06309665      47.30401323      52.31721552
H       53.00339972      48.44223135      49.57837411
H       50.69276701      52.81513935      48.81259378
H       53.83548477      50.41581575      47.87300673
H       52.91252603      52.47265403      48.11547823
H       46.25494031      52.28353469      50.23790783
H       46.21948393      50.39741480      50.49455297
H       47.22005354      51.17132213      51.61007212
