21
Lattice="100.0 0.0 0.0 0.0 100.0 0.0 0.0 0.0 100.0" Properties=species:S:1:pos:R:3 Energy=-406272.40625 Energy_pyscf=-406261.3688922672 Energy_nn=-406272.125 pbc="F F F"
C       52.34439632      49.39227726      49.18939015
C       51.33194598      52.04482958      49.12358495
C       53.02337122      50.39603587      48.62670104
C       52.57080629      51.76308165      48.48776628
C       46.91996984      51.32248245      50.01531123
C       51.13027347      49.82813937      49.91903021
C       50.57430713      51.06592133      49.80372531
O       50.04821788      49.02575593      51.76181422
O       48.38073436      50.14904655      48.45305138
O       51.12852944      47.31189945      50.47250135
C       50.69440056      48.63118270      50.80213523
C       48.23531700      50.86027326      49.40345553
O       49.31287659      51.42640584      50.16879321
H       50.86634201      46.76016122      51.24079715
H       52.74973271      48.40280871      49.37723544
H       50.94188953      53.06862474      48.97883022
H       53.79952688      49.97873806      48.11928025
H       53.23742961      52.56759281      48.13373268
H       46.92180727      52.32354316      50.54514084
H       46.18596895      51.31886779      49.26621180
H       46.58797532      50.71361314      50.83880808
