21
Lattice="100.0 0.0 0.0 0.0 100.0 0.0 0.0 0.0 100.0" Properties=species:S:1:pos:R:3 Energy=-406251.75 Energy_pyscf=-406243.59759267233 Energy_nn=-406252.8125 pbc="F F F"
C       52.68250295      50.18482872      50.20181745
C       50.98284592      51.80590440      48.79966249
C       53.29732922      50.86300556      49.16978114
C       52.36559353      51.64340135      48.37881070
C       46.69162102      51.43728270      49.59404701
C       51.31963995      50.16549609      50.53516289
C       50.48853116      50.89310779      49.63236801
O       50.57459691      49.04530506      52.66144459
O       48.50913116      52.80008765      50.48558997
O       50.66342796      47.90501932      50.50132648
C       50.69411793      48.97121979      51.43726575
C       48.16112908      51.69518182      50.00251394
O       49.09133398      50.73822780      49.69569380
H       50.46338393      47.03640636      51.13179991
H       53.32184995      49.67448950      50.87045986
H       50.14122359      52.33840657      48.26685686
H       54.20817240      50.55221461      48.73308055
H       52.59674098      52.45691050      47.60143254
H       46.15344624      51.54315415      50.50405680
H       46.19171869      52.01184293      48.79981117
H       46.59778434      50.34308958      49.20927200
