21
Lattice="100.0 0.0 0.0 0.0 100.0 0.0 0.0 0.0 100.0" Properties=species:S:1:pos:R:3 Energy=-406243.25 Energy_pyscf=-406224.64095582935 Energy_nn=-406247.5625 pbc="F F F"
C       52.38831439      49.62068858      49.66563593
C       51.01905352      52.02166727      48.82959922
C       53.04715395      50.60542028      49.12258273
C       52.41686883      51.72578044      48.59613396
C       46.89218906      51.43249723      50.71089073
C       51.02696734      50.06377613      50.26586225
C       50.35410066      51.15610341      49.76689329
O       49.89083173      49.14140055      52.13675869
O       47.91042806      49.82528511      49.21014687
O       50.11704259      47.89207725      50.34391033
C       50.39353661      49.04822640      51.09663762
C       48.00352475      50.82871701      49.84541837
O       49.09165422      51.52889521      50.15349190
H       49.52576158      47.53032440      50.99337501
H       53.09545046      48.67037469      49.99104709
H       50.29230805      52.58441963      48.16280001
H       54.14842466      50.49306765      49.10374992
H       52.80921957      52.47339448      48.10000752
H       47.12863591      52.01671228      51.50041000
H       46.53828519      52.21607589      49.97007449
H       45.94292279      50.96844705      50.85723143
