21
Lattice="100.0 0.0 0.0 0.0 100.0 0.0 0.0 0.0 100.0" Properties=species:S:1:pos:R:3 Energy=-406291.4375 Energy_pyscf=-406283.79134637874 Energy_nn=-406285.90625 pbc="F F F"
C       52.30255129      49.44548538      49.69421876
C       51.24874206      51.96697390      49.42871709
C       52.96982071      50.33810876      48.90829599
C       52.43016563      51.57106787      48.75075972
C       47.00953860      51.48123661      50.91832344
C       51.02933929      49.61614257      50.20462446
C       50.49909717      50.96060950      50.06064022
O       49.11383028      48.46409014      51.29087709
O       47.88908387      50.36994268      48.94309914
O       51.27176526      47.68662548      51.70592909
C       50.33910707      48.52541986      51.07276488
C       48.06125809      50.96519869      49.98571422
O       49.30600841      51.24788819      50.60872619
H       50.81674930      46.94564083      52.16855075
H       52.70709182      48.45470071      49.80279174
H       50.82141797      52.96315668      49.38855022
H       53.90119321      50.06825167      48.46831249
H       52.78751441      52.40352781      48.18210111
H       46.07423670      51.47393156      50.31781133
H       46.83157061      50.65385327      51.61698051
H       47.33936889      52.54403573      51.27140446
