21
Lattice="100.0 0.0 0.0 0.0 100.0 0.0 0.0 0.0 100.0" Properties=species:S:1:pos:R:3 Energy=-406240.71875 Energy_pyscf=-406229.9912464496 Energy_nn=-406247.125 pbc="F F F"
C       52.67548487      49.92762530      49.89816338
C       50.83420354      51.38606298      48.40360608
C       53.16451570      50.99764955      49.07711369
C       52.19795934      51.69015682      48.42020711
C       46.61675040      51.53709469      49.95765210
C       51.19187024      49.93408126      50.14925003
C       50.32082169      50.50224808      49.34356499
O       49.51684014      48.83583777      51.44289471
O       48.84640684      52.24124583      50.97958458
O       51.50091059      47.77603739      51.54499854
C       50.60457458      48.68302045      50.94974808
C       48.23727066      51.52911484      50.18670844
O       48.88697382      50.56652927      49.48881914
H       50.93626382      47.38771313      52.31536967
H       53.29911072      49.06380140      50.17319099
H       50.24821126      51.88762901      47.69257607
H       54.22462627      51.14816158      49.03891141
H       52.82283636      52.27571056      47.71156224
H       46.04207044      50.90642808      50.55768851
H       46.29292898      52.51126543      49.99350351
H       46.38422429      51.38786240      48.75820377
