21
Lattice="100.0 0.0 0.0 0.0 100.0 0.0 0.0 0.0 100.0" Properties=species:S:1:pos:R:3 Energy=-406277.34375 Energy_pyscf=-406265.97871252144 Energy_nn=-406276.96875 pbc="F F F"
C       52.25431214      49.42867177      49.55697456
C       51.19718064      51.96216362      49.42877198
C       52.96631667      50.35244686      48.90291009
C       52.42440359      51.58164784      48.67772926
C       47.05444622      51.44534452      50.81336579
C       51.03162012      49.66083897      50.32355413
C       50.55024156      50.95653327      50.22453242
O       49.06032609      48.33335389      51.25026355
O       48.15063864      50.35374293      49.01040810
O       51.16626746      47.90019361      51.78426108
C       50.30199122      48.60836202      51.03810117
C       48.19284182      50.83761342      50.06428438
O       49.38911664      51.26807384      50.83914249
H       50.65124469      47.09014749      52.03882972
H       52.58951421      48.42827508      49.76952911
H       50.66830566      52.91174360      49.33842341
H       53.92071384      50.02301102      48.46970729
H       52.84033558      52.44192849      48.09428515
H       46.07563197      51.46189457      50.29666012
H       46.85493727      50.62524231      51.56237945
H       47.39317172      52.46158817      51.32121690
