21
Lattice="100.0 0.0 0.0 0.0 100.0 0.0 0.0 0.0 100.0" Properties=species:S:1:pos:R:3 Energy=-406262.25 Energy_pyscf=-406263.4888305558 Energy_nn=-406262.28125 pbc="F F F"
C       52.35060094      49.43782688      49.38227677
C       50.89493598      51.73457146      48.67292332
C       52.89399289      50.54609870      48.66482357
C       52.17869817      51.66680113      48.32363627
C       46.97422040      51.39317435      50.78011522
C       50.99592700      49.45188761      49.81906973
C       50.42522691      50.67906134      49.55112607
O       49.20262579      47.87889449      50.42116307
O       47.75789503      51.33136628      48.45037515
O       51.02064045      47.85422435      51.67280996
C       50.30433246      48.35017765      50.69668865
C       47.89374153      51.18391959      49.66100434
O       49.14413691      50.79737590      50.23156462
H       50.39879691      47.30834952      52.11968257
H       53.01664313      48.57128391      49.26222256
H       50.20005987      52.49142929      48.31023682
H       53.82689861      50.57720853      48.19362624
H       52.63081107      52.60996380      47.82516498
H       47.22476410      52.29349561      51.26691149
H       45.89834218      51.31384829      50.38634886
H       47.01836395      50.75450103      51.64975871
