21
Lattice="100.0 0.0 0.0 0.0 100.0 0.0 0.0 0.0 100.0" Properties=species:S:1:pos:R:3 Energy=-406263.375 Energy_pyscf=-406250.5840344589 Energy_nn=-406261.34375 pbc="F F F"
C       52.40620464      49.64830062      50.02477336
C       50.98198813      51.91313283      49.35011957
C       52.99961141      50.37560123      49.16441171
C       52.27321905      51.63416975      48.85056479
C       46.82949915      51.08524907      51.02375361
C       50.96759359      49.77258274      50.42682856
C       50.36919497      51.03371030      50.23373153
O       49.24960881      48.89761312      52.00746495
O       48.00260925      50.74086473      48.92275380
O       50.58991356      47.43075685      50.89815447
C       50.26993078      48.70690063      51.16116322
C       47.93804001      51.02953897      50.08074299
O       49.20356232      51.52484487      50.68473682
H       50.39117117      47.06324326      51.76633472
H       52.73954527      48.64541450      50.30886969
H       50.53232216      52.98790792      49.15154992
H       54.02901073      50.09189764      48.89652307
H       52.68859059      52.33499224      48.13165737
H       46.91172454      50.12668096      51.76733257
H       47.04805621      51.90058564      51.79314446
H       45.87378225      50.99844172      50.52668905
