21
Lattice="100.0 0.0 0.0 0.0 100.0 0.0 0.0 0.0 100.0" Properties=species:S:1:pos:R:3 Energy=-406281.1875 Energy_pyscf=-406274.22087973217 Energy_nn=-406277.21875 pbc="F F F"
C       52.20988897      49.40425096      49.65945579
C       51.25565965      51.94936818      49.49625829
C       52.94991547      50.42564747      48.91235869
C       52.42600369      51.64407821      48.68279954
C       46.93635821      51.45631232      50.88511109
C       50.98494554      49.66864617      50.28896093
C       50.48362154      50.92961346      50.03100678
O       49.18118564      48.52364771      51.62578637
O       48.02065332      50.15254091      49.06015054
O       51.29803710      47.71541786      51.40344792
C       50.32780944      48.59397587      51.08196736
C       48.08097363      50.78311916      50.04629016
O       49.27305422      51.28926229      50.57175118
H       50.88904549      46.97836798      51.94455219
H       52.67074211      48.48308707      49.94588094
H       50.92502757      53.00209877      49.43737392
H       53.84074945      49.99636016      48.48502053
H       52.99230450      52.33834363      48.10654478
H       45.97702647      51.67884058      50.26645105
H       46.63265078      50.73923135      51.58272433
H       47.42104295      52.37369059      51.29848976
