21
Lattice="100.0 0.0 0.0 0.0 100.0 0.0 0.0 0.0 100.0" Properties=species:S:1:pos:R:3 Energy=-406282.0 Energy_pyscf=-406273.6589503933 Energy_nn=-406285.1875 pbc="F F F"
C       52.23470688      50.16802241      50.40135710
C       50.58399829      51.66957243      48.62599125
C       52.79535408      51.02299399      49.41684485
C       51.98762637      51.68212762      48.47898001
C       46.52893000      51.08771033      50.65722161
C       50.70080686      50.15646206      50.49457568
C       50.00858076      51.03053049      49.71902940
O       48.92785884      49.16444717      51.71286147
O       48.44701684      52.38029885      51.49261176
O       50.96102047      48.18862128      51.80627643
C       50.13543104      49.14230129      51.32449027
C       47.92884551      51.61797542      50.78344434
O       48.66274363      50.95286611      49.74821426
H       50.43870656      47.67651149      52.47816414
H       52.79950989      49.48483480      51.16356746
H       50.01118790      52.43212883      48.12022699
H       53.85481591      50.91211325      49.22374809
H       52.55688077      51.96326319      47.59757840
H       46.68724208      50.05440424      50.60972298
H       45.92499878      51.51172319      51.48265360
H       46.13185207      51.36334282      49.61084138
