21
Lattice="100.0 0.0 0.0 0.0 100.0 0.0 0.0 0.0 100.0" Properties=species:S:1:pos:R:3 Energy=-406285.3125 Energy_pyscf=-406280.94214272406 Energy_nn=-406282.625 pbc="F F F"
C       52.16087448      50.09492900      50.33405490
C       50.74137370      51.70716159      48.70187999
C       52.80425973      50.89278793      49.41709028
C       52.06973946      51.68851092      48.54593662
C       46.57733608      51.06656153      50.64772923
C       50.73139063      50.07789845      50.51570292
C       50.06473295      50.99673825      49.62942208
O       48.87626720      49.22876954      51.67734007
O       48.50124020      52.28509032      51.54854007
O       50.87384022      48.22496821      52.01879180
C       50.06140654      49.21532456      51.48456095
C       48.02015370      51.59687233      50.66715416
O       48.70063089      50.99643411      49.55212658
H       50.31074355      47.81122850      52.62086423
H       52.74898255      49.42404757      50.97736094
H       50.02021639      52.31497651      48.03153417
H       53.88395440      51.06780381      49.13100938
H       52.51923276      52.18269645      47.62941364
H       46.71721761      50.04810676      50.40388914
H       46.01536287      51.16508482      51.59081504
H       45.98074286      51.56983738      49.87713841
