21
Lattice="100.0 0.0 0.0 0.0 100.0 0.0 0.0 0.0 100.0" Properties=species:S:1:pos:R:3 Energy=-406288.125 Energy_pyscf=-406278.87109257455 Energy_nn=-406287.09375 pbc="F F F"
C       52.57493352      49.95007390      49.92126464
C       50.82242204      51.43640712      48.27764193
C       53.19553277      50.84852733      48.95443010
C       52.21222708      51.61673624      48.21556977
C       46.67662867      51.55614819      49.84596113
C       51.11879728      49.84841353      50.04092821
C       50.26796116      50.68771827      49.29989576
O       49.37229098      48.80362888      51.30972599
O       48.65694093      52.06693714      51.14714135
O       51.40698248      47.87180038      51.53922776
C       50.59508088      48.85179345      51.06726269
C       48.13385498      51.52152382      50.18778090
O       48.87420200      50.63110973      49.32853275
H       50.93121907      47.39612870      52.28821401
H       53.20063887      49.14019084      50.39981291
H       50.22495524      52.05668862      47.61419670
H       54.24173294      51.07379600      48.86882123
H       52.79429954      52.35705877      47.57602144
H       46.22042057      50.77409283      50.42590675
H       46.37797000      52.53871858      50.15170772
H       46.37996828      51.28684331      48.79934454
