21
Lattice="100.0 0.0 0.0 0.0 100.0 0.0 0.0 0.0 100.0" Properties=species:S:1:pos:R:3 Energy=-406250.53125 Energy_pyscf=-406245.6297530657 Energy_nn=-406251.09375 pbc="F F F"
C       52.27694665      49.53062813      49.77846454
C       50.93391093      52.00116575      49.55921788
C       52.77211320      50.45492108      48.90925554
C       51.99022198      51.56453105      48.74606900
C       46.75988493      51.64107977      50.59354857
C       50.99471482      49.82927207      50.47664833
C       50.33652598      51.06455629      50.41070963
O       49.19286762      48.41674413      51.07852337
O       48.26178136      50.99351039      48.74089716
O       51.39083713      47.77047502      51.68646538
C       50.37587920      48.63753788      51.02335407
C       47.98327991      51.17316129      49.94053023
O       48.98324418      51.37610886      50.77874091
H       51.16171969      46.88043073      51.86902828
H       52.71752895      48.55203789      50.04725227
H       50.58717570      52.94403210      49.46914616
H       53.85521729      50.23307780      48.54619254
H       52.49895247      52.30830030      47.97294572
H       46.10025211      52.27511397      49.83501997
H       46.25506598      50.81336335      51.02219742
H       46.91218485      52.40059139      51.32603289
