21
Lattice="100.0 0.0 0.0 0.0 100.0 0.0 0.0 0.0 100.0" Properties=species:S:1:pos:R:3 Energy=-406290.21875 Energy_pyscf=-406286.2274399249 Energy_nn=-406290.21875 pbc="F F F"
C       52.28492680      49.41316889      49.71112350
C       51.25111727      51.97385137      49.22344241
C       52.97026037      50.24507003      48.89001877
C       52.49869594      51.54633138      48.69548029
C       46.99531248      51.32439360      50.89397565
C       50.94984947      49.70325400      50.20372088
C       50.48458001      50.98409465      50.07099598
O       49.16210243      48.63730723      51.38066396
O       48.08843981      50.29411638      49.06005064
O       51.22972604      47.82883397      51.52583543
C       50.31474695      48.66598111      50.98894463
C       48.14984591      50.89350438      50.09289683
O       49.32874721      51.39185436      50.67007077
H       50.72429281      47.24113886      52.07046822
H       52.64172810      48.37078313      49.80359163
H       50.87709342      52.99770863      49.35322466
H       53.95336151      49.96607372      48.52798467
H       52.98930521      52.36411111      48.08966140
H       46.20490145      51.73464560      50.28394358
H       46.63028809      50.43243335      51.45881806
H       47.25151214      52.07840109      51.72483611
