21
Lattice="100.0 0.0 0.0 0.0 100.0 0.0 0.0 0.0 100.0" Properties=species:S:1:pos:R:3 Energy=-406273.375 Energy_pyscf=-406260.6138017442 Energy_nn=-406271.8125 pbc="F F F"
C       52.36147006      49.54764097      49.95575640
C       51.21822105      51.93633107      49.03391801
C       53.01555615      50.33157621      49.00161468
C       52.44412326      51.58439800      48.66874507
C       46.95426180      51.28411625      50.85913302
C       51.04910465      49.80717841      50.38092974
C       50.49920187      51.01117974      49.87540614
O       49.45373772      49.10115276      51.77648826
O       47.87757146      49.81752498      49.19253469
O       51.03688325      47.58873014      51.11282118
C       50.27931080      48.68912402      51.03658363
C       48.07889627      50.76474726      50.01730970
O       49.25763698      51.46152278      50.19269297
H       50.65611555      46.88805446      51.66610542
H       52.79233461      48.57822016      50.19963527
H       50.83291758      52.89679490      48.58692672
H       53.98508342      49.89552505      48.77411725
H       53.17078439      52.33758058      48.19015218
H       46.08211169      51.24061961      50.27297271
H       46.70605908      50.51012123      51.55784190
H       47.15561810      52.26387779      51.23800966
