21
Lattice="100.0 0.0 0.0 0.0 100.0 0.0 0.0 0.0 100.0" Properties=species:S:1:pos:R:3 Energy=-406249.90625 Energy_pyscf=-406238.7312721818 Energy_nn=-406254.15625 pbc="F F F"
C       52.43591235      49.72060649      49.77960607
C       50.88025119      51.89733639      48.93617689
C       53.05659969      50.67546136      49.13078747
C       52.30265799      51.72844641      48.56584912
C       46.92253619      51.60149837      50.51419283
C       51.13812798      50.06861912      50.33023474
C       50.38684717      51.10091772      49.95328454
O       50.14474429      49.39349796      52.13896237
O       48.00067838      49.76412074      49.33592452
O       49.88580870      47.95561234      50.31687725
C       50.35609124      48.96707564      51.02169935
C       48.06363081      50.75206558      49.93601702
O       49.23346321      51.29710229      50.43110382
H       49.25680808      47.46380015      50.86087976
H       52.81498892      48.71094328      49.96364352
H       50.25917673      52.61091228      48.45152869
H       54.11547900      50.63705329      48.98327072
H       52.75179159      52.42512646      47.90169761
H       47.29158707      52.14644191      51.44783638
H       46.46673621      52.14180241      49.69151639
H       46.25760162      50.76971070      50.68451352
