12
Lattice="100.0 0.0 0.0 0.0 100.0 0.0 0.0 0.0 100.0" Properties=species:S:1:pos:R:3 Energy=-145426.82995705146 pbc="F F F"
C       49.14942896      48.98988348      49.63920000
C       48.74444569      50.28448257      50.04791887
C       49.69470314      51.26723799      50.45507675
C       51.04678202      50.96000057      50.24226252
C       51.40702923      49.67388207      49.90405055
C       50.49837411      48.71944255      49.61359343
H       48.42812505      48.27091615      49.39641072
H       47.59832203      50.38545150      50.14197499
H       49.32584445      52.26674967      50.77244068
H       51.79753851      51.64352800      50.72235752
H       52.40167797      49.35245718      49.83551767
H       50.72726060      47.73325033      49.22755932
