12
Lattice="100.0 0.0 0.0 0.0 100.0 0.0 0.0 0.0 100.0" Properties=species:S:1:pos:R:3 Energy=-145424.7220651792 pbc="F F F"
C       48.99739601      48.91429656      49.91630635
C       48.60702076      50.15295442      50.34640503
C       49.53570554      51.12462455      50.56535876
C       50.95036671      50.86373629      50.53450307
C       51.37233039      49.55968542      50.18925677
C       50.32921985      48.65196455      49.77052508
H       48.29706191      48.18313682      49.57486297
H       47.56726492      50.36745772      50.42274065
H       49.12314715      52.15589113      50.81284372
H       51.80353170      51.52321613      50.90395923
H       52.43273508      49.15328537      50.13109424
H       50.69924432      47.84410887      49.09604077
