12
Lattice="100.0 0.0 0.0 0.0 100.0 0.0 0.0 0.0 100.0" Properties=species:S:1:pos:R:3 Energy=-145427.5717313189 pbc="F F F"
C       48.99888742      49.02339578      49.74730181
C       48.61108501      50.29863923      50.16203558
C       49.54206199      51.34480706      50.44537600
C       50.96112912      51.03221816      50.36198710
C       51.37088704      49.67848090      50.01790520
C       50.37055980      48.74640705      49.58822517
H       48.30043367      48.23244814      49.67378388
H       47.60813598      50.52072420      50.11543010
H       49.09011729      52.29135833      50.74204640
H       51.68625252      51.85241064      50.57741796
H       52.39186402      49.37799201      49.80733665
H       50.61593457      47.70864167      49.25795360
