12
Lattice="100.0 0.0 0.0 0.0 100.0 0.0 0.0 0.0 100.0" Properties=species:S:1:pos:R:3 Energy=-145430.71362084956 pbc="F F F"
C       49.08000050      49.09637987      49.48372263
C       48.65282142      50.38152493      49.84071450
C       49.58570195      51.34672799      50.26561800
C       50.95607453      51.04097503      50.13732486
C       51.35545371      49.77774574      49.64548542
C       50.38927519      48.76049531      49.46164688
H       48.32733148      48.36997057      49.25356859
H       47.58256766      50.45551260      49.93695229
H       49.23989547      52.31932109      50.74643141
H       51.71497494      51.88254577      50.33181359
H       52.41743234      49.47737285      49.46666282
H       50.57839157      47.68067891      49.31619055
