12
Lattice="100.0 0.0 0.0 0.0 100.0 0.0 0.0 0.0 100.0" Properties=species:S:1:pos:R:3 Energy=-145425.30441980006 pbc="F F F"
C       48.99592389      49.05261975      49.69644054
C       48.66643529      50.27540161      50.11324120
C       49.52613071      51.28656788      50.41463721
C       50.96171621      50.96048655      50.34708545
C       51.35098514      49.70036859      49.91292601
C       50.38736144      48.73082426      49.63308290
H       48.26781380      48.44460751      49.33242568
H       47.59191363      50.45192201      50.10121009
H       49.24069706      52.28792376      50.67358130
H       51.78790922      51.72638272      50.57316770
H       52.40808637      49.48661840      49.66852297
H       50.69774113      47.71207624      49.32641870
