12
Lattice="100.0 0.0 0.0 0.0 100.0 0.0 0.0 0.0 100.0" Properties=species:S:1:pos:R:3 Energy=-145430.2497939042 pbc="F F F"
C       49.01979168      49.02726591      49.72194889
C       48.65016714      50.29475026      50.05741939
C       49.55165761      51.29328149      50.40345282
C       50.93493510      50.97691199      50.32398405
C       51.30742023      49.68366125      49.90989567
C       50.38833413      48.73792368      49.56274270
H       48.26101909      48.29703148      49.56585735
H       47.59707441      50.45459827      50.05569235
H       49.18629986      52.25245303      50.78761497
H       51.66309865      51.71868514      50.72877258
H       52.40292559      49.30325589      49.91379680
H       50.55518466      47.74754697      49.21238503
