12
Lattice="100.0 0.0 0.0 0.0 100.0 0.0 0.0 0.0 100.0" Properties=species:S:1:pos:R:3 Energy=-145427.97641724272 pbc="F F F"
C       49.07732261      48.93370377      49.72880756
C       48.66057414      50.18855018      50.17586364
C       49.63813427      51.17894904      50.53938787
C       50.97195122      50.88187222      50.36478386
C       51.36417353      49.59462434      49.99789008
C       50.43580130      48.61132792      49.72818501
H       48.47519812      48.00999321      49.48350939
H       47.60098600      50.56710985      50.31138720
H       49.37475506      52.24509432      50.81042934
H       51.74916862      51.62136574      50.39410161
H       52.39901400      49.40439083      49.79247463
H       50.84992006      47.75490568      49.18957066
