12
Lattice="100.0 0.0 0.0 0.0 100.0 0.0 0.0 0.0 100.0" Properties=species:S:1:pos:R:3 Energy=-145428.1789713189 pbc="F F F"
C       48.99205476      49.08990300      49.70129486
C       48.59168350      50.32449429      50.11189832
C       49.53474793      51.27361591      50.45780529
C       50.95415097      51.06601888      50.29840499
C       51.37742602      49.69733778      49.97280354
C       50.35991999      48.76028450      49.61807602
H       48.25925561      48.36050067      49.36674347
H       47.56644943      50.43265041      50.20648870
H       49.13983670      52.28834263      50.55846721
H       51.67359965      51.82788716      50.66613358
H       52.43355057      49.48099862      49.92706199
H       50.67249647      47.71165737      49.33386642
