12
Lattice="100.0 0.0 0.0 0.0 100.0 0.0 0.0 0.0 100.0" Properties=species:S:1:pos:R:3 Energy=-145425.7969350046 pbc="F F F"
C       49.11282607      48.95481417      49.73462180
C       48.67560969      50.23994446      50.20200855
C       49.69908120      51.25851555      50.39713540
C       51.03437185      50.92737435      50.37550155
C       51.40245581      49.61585786      50.01722377
C       50.50952336      48.72739503      49.60163973
H       48.38317516      48.13971113      49.46786913
H       47.58579875      50.56439079      50.38089388
H       49.46872890      52.28074020      50.62965086
H       51.80870181      51.56473222      50.70118003
H       52.41420125      49.20643092      49.91003518
H       50.73345660      47.71925980      49.29881997
