12
Lattice="100.0 0.0 0.0 0.0 100.0 0.0 0.0 0.0 100.0" Properties=species:S:1:pos:R:3 Energy=-145423.17283857605 pbc="F F F"
C       48.96538810      49.14411024      49.51040939
C       48.62050967      50.40223134      49.88912963
C       49.55816324      51.38006363      50.25322421
C       50.89187893      51.07845080      50.18198674
C       51.31162466      49.84029802      49.68193384
C       50.36651879      48.79529695      49.47080582
H       48.10209782      48.56051323      49.31829477
H       47.61674285      50.67105494      49.90149703
H       49.08209620      52.26400086      50.74798791
H       51.70504792      51.86904309      50.22223171
H       52.38325715      49.62665159      49.75484312
H       50.49372358      47.73599914      49.25201209
