12
Lattice="100.0 0.0 0.0 0.0 100.0 0.0 0.0 0.0 100.0" Properties=species:S:1:pos:R:3 Energy=-145427.56430686777 pbc="F F F"
C       49.03666024      49.02320015      49.69883885
C       48.62012755      50.30031726      50.02892125
C       49.59800805      51.31948625      50.32007293
C       51.00022066      50.99700164      50.38100318
C       51.38145564      49.71247745      49.82151457
C       50.39765084      48.77857353      49.55171170
H       48.31749518      48.32711998      49.42387154
H       47.58893100      50.54741342      50.14931300
H       49.22465558      52.22628789      50.75324230
H       51.66579899      51.79490552      50.84242260
H       52.41106900      49.34180575      49.87477643
H       50.60259149      47.77371211      49.15757740
