12
Lattice="100.0 0.0 0.0 0.0 100.0 0.0 0.0 0.0 100.0" Properties=species:S:1:pos:R:3 Energy=-145430.10487772155 pbc="F F F"
C       49.04220162      48.96321928      49.93559491
C       48.61706870      50.21896655      50.30608351
C       49.55657165      51.23996832      50.60202368
C       50.94843692      50.91501971      50.53701246
C       51.34588525      49.59749343      50.15878324
C       50.37714569      48.68723587      49.76255877
H       48.30792902      48.20382040      49.72837018
H       47.56303088      50.41989975      50.33917628
H       49.23719094      52.33015448      50.62118338
H       51.64109357      51.83092764      50.51081263
H       52.43696912      49.33815638      50.05250863
H       50.56106641      47.66984552      49.37881662
