12
Lattice="100.0 0.0 0.0 0.0 100.0 0.0 0.0 0.0 100.0" Properties=species:S:1:pos:R:3 Energy=-145429.85373546253 pbc="F F F"
C       49.01841100      49.06567232      49.74205600
C       48.58562378      50.31851341      50.19751448
C       49.52592791      51.28149341      50.49098599
C       50.93541134      51.02064202      50.35048421
C       51.35134444      49.66692165      50.03192251
C       50.36440000      48.75969579      49.66898952
H       48.37100338      48.32671982      49.36702498
H       47.53638937      50.51497166      50.37364825
H       49.10826203      52.23427586      50.69820472
H       51.65280854      51.89084390      50.40320354
H       52.46361063      49.43854764      49.81675493
H       50.60333828      47.76572414      49.30179528
