12
Lattice="100.0 0.0 0.0 0.0 100.0 0.0 0.0 0.0 100.0" Properties=species:S:1:pos:R:3 Energy=-145430.28366943213 pbc="F F F"
C       49.01969471      49.09984902      49.74133356
C       48.60921629      50.32285617      50.09688704
C       49.53641934      51.30944026      50.44640258
C       50.90701703      51.05081588      50.35265621
C       51.30592778      49.70730854      49.94122757
C       50.35816994      48.72469194      49.60137121
H       48.19789298      48.48081979      49.35160875
H       47.61430966      50.67990105      49.94303959
H       49.14857338      52.30021639      50.75750298
H       51.62942308      51.87956893      50.62449261
H       52.38569034      49.47357555      49.88317150
H       50.65662581      47.69978361      49.24249702
