12
Lattice="100.0 0.0 0.0 0.0 100.0 0.0 0.0 0.0 100.0" Properties=species:S:1:pos:R:3 Energy=-145428.91165423725 pbc="F F F"
C       49.04022906      49.11313330      49.67350766
C       48.62482940      50.33813922      50.15794683
C       49.51814987      51.33898295      50.42344382
C       50.90259872      51.05867264      50.32204730
C       51.31578680      49.72786758      49.96278697
C       50.34051587      48.70009178      49.60139318
H       48.26639068      48.40121269      49.42189563
H       47.60284367      50.43681542      50.47108149
H       49.20743102      52.35734253      50.72672188
H       51.56946418      51.95963350      50.44469733
H       52.39715633      49.54801747      49.83316865
H       50.60122843      47.64265747      49.27327812
