12
Lattice="100.0 0.0 0.0 0.0 100.0 0.0 0.0 0.0 100.0" Properties=species:S:1:pos:R:3 Energy=-145428.88651390662 pbc="F F F"
C       49.07690852      48.94247959      49.67766193
C       48.67265877      50.30532380      50.09607059
C       49.63267212      51.29395542      50.36982755
C       50.97026356      50.93998933      50.29868571
C       51.35658354      49.65670977      49.93085364
C       50.45520547      48.72040040      49.53370590
H       48.36787004      48.15941008      49.25153100
H       47.62555748      50.69259142      50.09250979
H       49.28892926      52.25660432      50.84706329
H       51.78525990      51.63628669      50.56230658
H       52.37444252      49.39826888      49.83024842
H       50.85281032      47.74339568      49.15293671
