12
Lattice="100.0 0.0 0.0 0.0 100.0 0.0 0.0 0.0 100.0" Properties=species:S:1:pos:R:3 Energy=-145431.7038697429 pbc="F F F"
C       49.07171438      48.97249312      49.74837999
C       48.67218648      50.29025248      50.11579388
C       49.64294872      51.25985983      50.46053533
C       50.94285618      50.90134952      50.37576817
C       51.36418409      49.69451660      49.94123337
C       50.44681229      48.67465229      49.64123025
H       48.24036296      48.27531567      49.49820023
H       47.58530525      50.60830962      50.17306092
H       49.44151028      52.28573360      50.77309496
H       51.71203305      51.64111724      50.46782251
H       52.41469475      49.57701537      49.77710876
H       50.81541515      47.71426640      49.22690504
