12
Lattice="100.0 0.0 0.0 0.0 100.0 0.0 0.0 0.0 100.0" Properties=species:S:1:pos:R:3 Energy=-145430.92546342453 pbc="F F F"
C       49.02535419      49.06033680      49.59449354
C       48.63925453      50.33181567      49.90068718
C       49.54418361      51.28257626      50.29335963
C       50.98074443      51.02226937      50.19869519
C       51.38480997      49.71899129      49.75771640
C       50.36386092      48.78371022      49.46694955
H       48.31867927      48.22566528      49.44667944
H       47.59359674      50.49359215      50.01546591
H       49.16718008      52.25342882      50.64645828
H       51.75701398      51.78933624      50.33766636
H       52.40640326      49.38675146      49.62002164
H       50.66916778      47.74657118      49.35354172
