12
Lattice="100.0 0.0 0.0 0.0 100.0 0.0 0.0 0.0 100.0" Properties=species:S:1:pos:R:3 Energy=-145429.50780447002 pbc="F F F"
C       49.07953377      49.09544606      49.55032908
C       48.64224909      50.36795957      49.95947266
C       49.57481770      51.38821317      50.28630042
C       50.92385676      51.03302282      50.15400368
C       51.34500363      49.73037610      49.79853097
C       50.40953839      48.75712120      49.42774034
H       48.33435734      48.34906386      49.42075402
H       47.56989582      50.39579521      50.25900836
H       49.21068011      52.35610479      50.71057701
H       51.67135124      51.90622117      50.32728561
H       52.43010418      49.44002867      49.74189043
H       50.57582190      47.64389521      49.28942299
