12
Lattice="100.0 0.0 0.0 0.0 100.0 0.0 0.0 0.0 100.0" Properties=species:S:1:pos:R:3 Energy=-145425.78594820664 pbc="F F F"
C       48.99509973      49.08532806      49.64877346
C       48.63907810      50.30215401      50.19276814
C       49.55256970      51.30679755      50.41961492
C       50.92209558      51.02439647      50.32980116
C       51.31500419      49.72282373      49.96774145
C       50.37241016      48.74412331      49.65893734
H       48.22314207      48.36383782      49.61408639
H       47.63733750      50.40695080      50.19935500
H       49.11245631      52.23145014      50.75025940
H       51.66975933      51.80672874      50.55573950
H       52.36266250      49.46969615      49.92611830
H       50.60751963      47.76854986      49.24974060
