12
Lattice="100.0 0.0 0.0 0.0 100.0 0.0 0.0 0.0 100.0" Properties=species:S:1:pos:R:3 Energy=-145429.21076628167 pbc="F F F"
C       49.04173343      49.10495130      49.52655327
C       48.59850581      50.35930943      49.93306561
C       49.56960933      51.35069123      50.19912506
C       50.97382745      51.05527866      50.17720197
C       51.38910433      49.76113332      49.74524334
C       50.36468470      48.81816175      49.41254538
H       48.26122027      48.32638338      49.47319622
H       47.51492510      50.40765388      50.17448226
H       49.18019357      52.27376161      50.59929909
H       51.66511311      51.80805739      50.62121107
H       52.48507490      49.43204637      49.73203423
H       50.58038814      47.72623839      49.37878893
