12
Lattice="100.0 0.0 0.0 0.0 100.0 0.0 0.0 0.0 100.0" Properties=species:S:1:pos:R:3 Energy=-145430.50757733942 pbc="F F F"
C       49.06228010      49.03015245      49.70472646
C       48.62955052      50.27021124      50.09703192
C       49.63061671      51.25132702      50.37947240
C       51.05712436      50.98731988      50.34706178
C       51.42204834      49.69011701      49.92470080
C       50.42728531      48.77631893      49.60148953
H       48.33572533      48.25456097      49.41815565
H       47.59692892      50.52455983      49.92600168
H       49.25785329      52.23408565      50.62685672
H       51.84688008      51.66651077      50.73921529
H       52.40307108      49.26184007      49.87698612
H       50.65763955      47.76591435      49.26078471
