12
Lattice="100.0 0.0 0.0 0.0 100.0 0.0 0.0 0.0 100.0" Properties=species:S:1:pos:R:3 Energy=-145432.03238219378 pbc="F F F"
C       49.02964702      49.04875734      49.75861468
C       48.60823322      50.28773995      50.15138644
C       49.59060188      51.26962699      50.48484174
C       50.94784400      50.98763453      50.36620883
C       51.37546901      49.69665453      50.00280938
C       50.37371525      48.76344117      49.66903572
H       48.29141957      48.36041849      49.48834351
H       47.54640988      50.44199642      50.26667916
H       49.15358645      52.22883310      50.67551766
H       51.70253645      51.77412802      50.59806684
H       52.45359012      49.30491651      50.01921182
H       50.64207439      47.77116690      49.32448234
