12
Lattice="100.0 0.0 0.0 0.0 100.0 0.0 0.0 0.0 100.0" Properties=species:S:1:pos:R:3 Energy=-145425.7742631764 pbc="F F F"
C       49.03713075      48.88496103      49.84295218
C       48.63107630      50.26306122      50.24256407
C       49.62251462      51.23229152      50.50616353
C       50.97189607      50.87124728      50.48756918
C       51.32742094      49.63923884      50.05900966
C       50.45057531      48.66684012      49.69743329
H       48.39234104      48.06683213      49.89304542
H       47.60572736      50.58515290      50.20958682
H       49.41163244      52.27758481      50.66612494
H       51.71641361      51.63919738      50.67618591
H       52.39427264      49.46610509      49.98822731
H       50.80127496      47.72241519      49.32381409
