12
Lattice="100.0 0.0 0.0 0.0 100.0 0.0 0.0 0.0 100.0" Properties=species:S:1:pos:R:3 Energy=-145429.5399163631 pbc="F F F"
C       49.02260865      49.04542064      49.64254058
C       48.59688360      50.29706735      50.09892842
C       49.56669363      51.33804298      50.37428552
C       50.99069626      51.01371947      50.31877120
C       51.40400191      49.70346609      49.89042398
C       50.39164059      48.73094949      49.58295257
H       48.30765101      48.28286986      49.42705294
H       47.52756701      50.51507340      50.26056466
H       49.26520334      52.28523914      50.72027131
H       51.78966394      51.72808794      50.59533877
H       52.47243299      49.33767801      49.78901214
H       50.48198457      47.71476086      49.27972869
