12
Lattice="100.0 0.0 0.0 0.0 100.0 0.0 0.0 0.0 100.0" Properties=species:S:1:pos:R:3 Energy=-145429.224609263 pbc="F F F"
C       49.03722621      49.05159408      49.72408968
C       48.62144372      50.21637666      50.21487717
C       49.55289107      51.20796902      50.49276585
C       50.96047714      50.94391847      50.36191378
C       51.39277020      49.64800909      50.02706876
C       50.34749070      48.71021367      49.72278934
H       48.27343433      48.31932612      49.36890969
H       47.54707414      50.38130048      50.20857791
H       49.24120947      52.22419819      50.73132135
H       51.69041431      51.78395689      50.41693255
H       52.45292586      49.36707651      49.79441727
H       50.67470851      47.77580181      49.26867865
