12
Lattice="100.0 0.0 0.0 0.0 100.0 0.0 0.0 0.0 100.0" Properties=species:S:1:pos:R:3 Energy=-145432.33707256208 pbc="F F F"
C       49.03831193      49.09408534      49.59245228
C       48.64392978      50.38646142      49.95685403
C       49.57067395      51.33273515      50.37116251
C       50.94727355      51.03484123      50.24024757
C       51.34255343      49.77940879      49.76271946
C       50.39856067      48.76626274      49.57053075
H       48.29599397      48.36484625      49.43233172
H       47.59027515      50.61846595      50.00500439
H       49.12880809      52.29492987      50.61062099
H       51.73778681      51.83714594      50.54054258
H       52.40972485      49.41011989      49.66796804
H       50.68107023      47.70507013      49.38937901
