12
Lattice="100.0 0.0 0.0 0.0 100.0 0.0 0.0 0.0 100.0" Properties=species:S:1:pos:R:3 Energy=-145428.53581826668 pbc="F F F"
C       49.09803337      48.92482590      49.81420914
C       48.64655512      50.19109530      50.25341661
C       49.58920605      51.23976185      50.53255582
C       50.97936695      50.86238345      50.46541242
C       51.34624072      49.59177496      50.05848895
C       50.41083918      48.60972634      49.71988969
H       48.35698240      48.21992809      49.51669856
H       47.58769386      50.35712433      50.22299978
H       49.20804505      52.28722758      50.67222624
H       51.66354145      51.64762804      50.86277520
H       52.41230614      49.29064537      49.97917003
H       50.56739363      47.71277242      49.13722480
