12
Lattice="100.0 0.0 0.0 0.0 100.0 0.0 0.0 0.0 100.0" Properties=species:S:1:pos:R:3 Energy=-145426.0103709309 pbc="F F F"
C       49.11004771      48.98136088      49.68896228
C       48.70715102      50.20316003      50.19300803
C       49.61454302      51.24166563      50.46471347
C       51.02807804      50.91166609      50.32261476
C       51.37985399      49.59767959      50.00605011
C       50.46797699      48.65416615      49.65358346
H       48.48068725      48.16582651      49.33370872
H       47.61827324      50.38279735      50.33791356
H       49.27764998      52.27587800      50.79435245
H       51.75027450      51.67499467      50.57182100
H       52.38172676      49.24093332      50.05720720
H       50.56628919      47.72412200      49.20564755
