12
Lattice="100.0 0.0 0.0 0.0 100.0 0.0 0.0 0.0 100.0" Properties=species:S:1:pos:R:3 Energy=-145429.98036123184 pbc="F F F"
C       49.03818624      49.00750463      49.87010485
C       48.63644868      50.26588791      50.18320622
C       49.53539279      51.27780551      50.46700063
C       50.91359236      50.96283064      50.48195948
C       51.31067660      49.62866002      50.02259593
C       50.36048127      48.72740173      49.63547278
H       48.33009936      48.23430636      49.65197321
H       47.57342581      50.47886360      50.28780412
H       49.21028316      52.32454104      50.59504149
H       51.71711836      51.75293241      50.57936149
H       52.42657419      49.43194743      49.98388259
H       50.64424982      47.67545896      49.40495851
