12
Lattice="100.0 0.0 0.0 0.0 100.0 0.0 0.0 0.0 100.0" Properties=species:S:1:pos:R:3 Energy=-145430.82884533462 pbc="F F F"
C       49.06959834      49.00462663      49.63115380
C       48.60952105      50.31719599      49.99478178
C       49.63170658      51.26413121      50.32597649
C       51.00378516      50.92045622      50.27249471
C       51.42173566      49.71886565      49.80526278
C       50.43973994      48.74704167      49.54566694
H       48.40440832      48.11463773      49.35850655
H       47.53147861      50.63450381      49.78569735
H       49.34423438      52.24776164      50.76916700
H       51.71503627      51.61804897      50.67098234
H       52.46852139      49.46154771      49.83225810
H       50.81394222      47.75223836      49.23083300
