12
Lattice="100.0 0.0 0.0 0.0 100.0 0.0 0.0 0.0 100.0" Properties=species:S:1:pos:R:3 Energy=-145422.0750879173 pbc="F F F"
C       49.10060531      48.92022751      49.93581561
C       48.65078400      50.28876067      50.23090934
C       49.69284620      51.18784503      50.57091067
C       51.04198642      50.87586148      50.59777479
C       51.46641090      49.68301950      50.03333864
C       50.47848430      48.68869516      49.80233938
H       48.33002969      48.13040508      49.68069755
H       47.57055164      50.64617065      50.35734332
H       49.43893095      52.25363178      50.64854103
H       51.74632567      51.65474050      50.65377109
H       52.42944836      49.63880171      49.67503544
H       50.87786216      47.74636822      49.34622891
