12
Lattice="100.0 0.0 0.0 0.0 100.0 0.0 0.0 0.0 100.0" Properties=species:S:1:pos:R:3 Energy=-145426.6935229351 pbc="F F F"
C       49.00357464      49.01160438      49.70915484
C       48.63314983      50.26879918      50.11266903
C       49.55680709      51.25889032      50.41177904
C       50.92792835      50.98319547      50.37445806
C       51.35418861      49.67832401      49.91615940
C       50.35332547      48.69340646      49.62085549
H       48.21409767      48.31417765      49.54440327
H       47.61065905      50.30000118      50.19891892
H       49.26209264      52.34886127      50.55109420
H       51.74949611      51.70752815      50.56952877
H       52.38934095      49.52295069      49.84566285
H       50.59235016      47.65113873      49.43047123
