12
Lattice="100.0 0.0 0.0 0.0 100.0 0.0 0.0 0.0 100.0" Properties=species:S:1:pos:R:3 Energy=-145431.61831065716 pbc="F F F"
C       49.10537387      49.01677157      49.69729761
C       48.65486681      50.27043955      50.09680715
C       49.66691266      51.23060865      50.36379878
C       51.07080697      50.96835221      50.34784849
C       51.45401529      49.68110271      49.91222273
C       50.45459417      48.75340997      49.59471019
H       48.37761254      48.24655782      49.38913693
H       47.55441160      50.51113295      49.97685009
H       49.34354197      52.25545342      50.60944128
H       51.85318116      51.66687616      50.70054475
H       52.44558840      49.21084388      49.85983657
H       50.66212768      47.74454658      49.29945525
