12
Lattice="100.0 0.0 0.0 0.0 100.0 0.0 0.0 0.0 100.0" Properties=species:S:1:pos:R:3 Energy=-145430.8646829598 pbc="F F F"
C       49.06618504      49.01188094      49.86533477
C       48.62230831      50.23983267      50.31123723
C       49.54167265      51.28364265      50.55300350
C       50.93426345      50.93365769      50.48629225
C       51.32390602      49.60912062      50.13030600
C       50.38980890      48.67718057      49.72497611
H       48.25503884      48.24560592      49.79772987
H       47.57611186      50.40657731      50.40152685
H       49.09918656      52.31265197      50.60515606
H       51.75977626      51.69811356      50.61327973
H       52.42388814      49.37480441      49.97835452
H       50.72571592      47.68734803      49.38672027
