12
Lattice="100.0 0.0 0.0 0.0 100.0 0.0 0.0 0.0 100.0" Properties=species:S:1:pos:R:3 Energy=-145428.7691983203 pbc="F F F"
C       49.07078857      48.98132358      49.78638709
C       48.63225994      50.27222822      50.26058873
C       49.65241440      51.20066533      50.53725818
C       50.99032995      50.92206331      50.40137718
C       51.39670976      49.64906058      50.09128863
C       50.45409343      48.73135676      49.74535378
H       48.49722871      48.27308402      49.15228900
H       47.53444003      50.59021525      50.30194414
H       49.40257402      52.23847606      50.84771100
H       51.72574979      51.68160846      50.51036364
H       52.46555997      49.33903239      50.04674054
H       50.72577628      47.76152394      49.29713131
