12
Lattice="100.0 0.0 0.0 0.0 100.0 0.0 0.0 0.0 100.0" Properties=species:S:1:pos:R:3 Energy=-145429.68404205827 pbc="F F F"
C       49.08811220      49.08410571      49.66673298
C       48.63763433      50.31297103      50.11693151
C       49.56635548      51.29057530      50.41141426
C       50.93474646      51.00318114      50.30282591
C       51.31911969      49.68842009      49.92207204
C       50.39099842      48.71080909      49.60459929
H       48.33268351      48.30338396      49.58284226
H       47.59279921      50.45196821      50.17321301
H       49.15445808      52.23196701      50.67362447
H       51.74283285      51.77751945      50.40823475
H       52.40720079      49.45866526      49.75791596
H       50.70869333      47.76803299      49.32637553
