12
Lattice="100.0 0.0 0.0 0.0 100.0 0.0 0.0 0.0 100.0" Properties=species:S:1:pos:R:3 Energy=-145427.38651610573 pbc="F F F"
C       49.06472899      49.05289383      49.78959661
C       48.62571205      50.25799447      50.27778796
C       49.60080405      51.27739154      50.57422014
C       50.96270860      50.99533585      50.43596371
C       51.35948880      49.68050163      50.09447934
C       50.38212552      48.70879932      49.77445601
H       48.27778682      48.48087276      49.36866160
H       47.58101086      50.40615841      50.34352819
H       49.17210214      52.27537635      50.66919294
H       51.78049251      51.81777057      50.45315257
H       52.41898914      49.30896141      50.01402685
H       50.61279930      47.72462365      49.33080706
