12
Lattice="100.0 0.0 0.0 0.0 100.0 0.0 0.0 0.0 100.0" Properties=species:S:1:pos:R:3 Energy=-145426.46421747678 pbc="F F F"
C       49.13033265      49.00794122      49.79612479
C       48.67506222      50.30576666      50.13671832
C       49.59605998      51.27031963      50.54466402
C       51.04087638      50.92577676      50.42522453
C       51.39131557      49.68656035      49.95358371
C       50.44844856      48.70038347      49.73222886
H       48.35903092      48.27924035      49.61458775
H       47.59817391      50.46352894      50.04459000
H       49.23669566      52.26150349      50.68385756
H       51.80016525      51.60998011      50.54683943
H       52.40182609      49.44466164      49.81745329
H       50.71411107      47.73849651      49.31614244
