12
Lattice="100.0 0.0 0.0 0.0 100.0 0.0 0.0 0.0 100.0" Properties=species:S:1:pos:R:3 Energy=-145428.27389197875 pbc="F F F"
C       49.03018846      49.04305193      49.73542610
C       48.66073531      50.23346075      50.17435799
C       49.60308636      51.23990260      50.48023758
C       50.98362107      50.98748420      50.34931064
C       51.33506668      49.66848604      50.02543746
C       50.40768450      48.72406248      49.66611946
H       48.33464420      48.18896967      49.58625954
H       47.60412975      50.40880482      50.38589793
H       49.21381994      52.25029165      50.66846783
H       51.84374677      51.75483325      50.51175511
H       52.39587025      49.23010879      50.09077643
H       50.78660188      47.74970835      49.33153217
