12
Lattice="100.0 0.0 0.0 0.0 100.0 0.0 0.0 0.0 100.0" Properties=species:S:1:pos:R:3 Energy=-145429.29010449385 pbc="F F F"
C       49.02819645      49.08199280      49.52514843
C       48.59165197      50.37762739      49.93200978
C       49.56643321      51.34303864      50.18895771
C       50.97767082      51.04424045      50.18186609
C       51.38379370      49.75183231      49.73184311
C       50.39236435      48.81117080      49.40630524
H       48.32153172      48.32655010      49.42549487
H       47.53117853      50.53045115      50.04992582
H       49.20649510      52.26028918      50.59462639
H       51.69095003      51.77007939      50.66977473
H       52.46882147      49.41695200      49.73056101
H       50.54882317      47.73971082      49.33022527
