12
Lattice="100.0 0.0 0.0 0.0 100.0 0.0 0.0 0.0 100.0" Properties=species:S:1:pos:R:3 Energy=-145429.2263219918 pbc="F F F"
C       48.98884962      49.05696754      49.74412978
C       48.58010380      50.30797733      50.20037792
C       49.51794782      51.28632250      50.40438847
C       50.89343351      51.00132830      50.42508679
C       51.36438592      49.69450986      49.97316711
C       50.32054683      48.74131546      49.64583792
H       48.27387932      48.30959648      49.45328453
H       47.57960383      50.63238397      50.05260731
H       49.25021058      52.27047004      50.66682970
H       51.66869531      51.80262102      50.54491629
H       52.42039617      49.36700763      49.88416351
H       50.55913869      47.72952996      49.33317030
