12
Lattice="100.0 0.0 0.0 0.0 100.0 0.0 0.0 0.0 100.0" Properties=species:S:1:pos:R:3 Energy=-145426.3775464562 pbc="F F F"
C       49.09382824      48.92084079      49.91693991
C       48.71588989      50.16442374      50.31018925
C       49.64252753      51.17070786      50.56041502
C       51.04386185      50.86196024      50.56835468
C       51.36191179      49.59510612      50.12394060
C       50.45802686      48.64985019      49.78191682
H       48.41833124      48.20280514      49.53358941
H       47.63388925      50.37686182      50.28958167
H       49.28574900      52.17089237      50.79828271
H       51.81508831      51.57554666      50.62490697
H       52.36611075      49.33799160      49.99812102
H       50.79584508      47.82910763      49.20171729
