12
Lattice="100.0 0.0 0.0 0.0 100.0 0.0 0.0 0.0 100.0" Properties=species:S:1:pos:R:3 Energy=-145426.20766048873 pbc="F F F"
C       49.11067147      49.05095290      49.52944576
C       48.71531484      50.26978577      49.95916727
C       49.60658943      51.31130243      50.35332159
C       50.98777998      50.94770631      50.14791822
C       51.35716555      49.67552965      49.78127557
C       50.46867157      48.66912910      49.51504750
H       48.40248900      48.15329834      49.53535015
H       47.59132556      50.43977333      49.91049145
H       49.28492386      52.33642133      50.62629322
H       51.82034764      51.60478869      50.34858669
H       52.40867444      49.45706204      49.80053578
H       50.80644243      47.66357867      49.37370678
