12
Lattice="100.0 0.0 0.0 0.0 100.0 0.0 0.0 0.0 100.0" Properties=species:S:1:pos:R:3 Energy=-145425.79786243223 pbc="F F F"
C       49.04235166      49.15080387      49.60788592
C       48.61889040      50.34229543      50.07783585
C       49.53440022      51.34267690      50.30963365
C       50.91510475      51.02271599      50.24878204
C       51.32337599      49.74974538      49.87251795
C       50.35511895      48.81795625      49.54141420
H       48.34201095      48.37288521      49.43123851
H       47.59559620      50.55753004      49.92738052
H       49.01971916      52.20625475      50.67393285
H       51.66103258      51.76964146      50.53300326
H       52.40440380      49.49173475      49.73336001
H       50.63913569      47.79374525      49.32606715
