12
Lattice="100.0 0.0 0.0 0.0 100.0 0.0 0.0 0.0 100.0" Properties=species:S:1:pos:R:3 Energy=-145428.10733020067 pbc="F F F"
C       49.07189391      48.95941357      49.72281100
C       48.68066584      50.27178660      50.10209531
C       49.62329243      51.21650408      50.35346607
C       50.95906962      50.88585775      50.35681104
C       51.33629647      49.65661141      49.91332689
C       50.44954150      48.68888407      49.56231127
H       48.25136205      48.16657664      49.51898418
H       47.59466095      50.48067125      50.39984793
H       49.42112913      52.26499250      50.62751766
H       51.72163707      51.53020082      50.75916766
H       52.40533905      49.42674142      50.05519318
H       50.78519002      47.73500750      49.24083234
