12
Lattice="100.0 0.0 0.0 0.0 100.0 0.0 0.0 0.0 100.0" Properties=species:S:1:pos:R:3 Energy=-145428.35815254657 pbc="F F F"
C       48.93053497      49.01787812      49.71673369
C       48.59175264      50.33301228      50.11988179
C       49.60121710      51.23391344      50.43855818
C       50.92044201      51.00534553      50.37550410
C       51.33559479      49.77193563      49.94138120
C       50.35872329      48.78217290      49.67596239
H       48.15575089      48.37389475      49.32762956
H       47.57672041      50.70059574      50.26653202
H       49.23945015      52.23548086      50.67237044
H       51.67054901      51.74404285      50.49754183
H       52.42327959      49.54558397      49.95565636
H       50.74508487      47.76451914      49.45633159
