12
Lattice="100.0 0.0 0.0 0.0 100.0 0.0 0.0 0.0 100.0" Properties=species:S:1:pos:R:3 Energy=-145425.36351509063 pbc="F F F"
C       49.08621976      48.99589680      49.60977461
C       48.67708804      50.33277700      49.85401335
C       49.61666276      51.30227689      50.22763391
C       50.98203911      50.97757380      50.24135776
C       51.39004603      49.71158141      49.69008050
C       50.41367390      48.74362511      49.40138678
H       48.30419554      48.21882927      49.43140935
H       47.56846833      50.46815207      49.89801240
H       49.12159908      52.29660998      50.59861322
H       51.82030676      51.60515683      50.42420164
H       52.43153167      49.38660138      49.56075284
H       50.75980526      47.70339002      49.43897713
