12
Lattice="100.0 0.0 0.0 0.0 100.0 0.0 0.0 0.0 100.0" Properties=species:S:1:pos:R:3 Energy=-145424.50020192805 pbc="F F F"
C       49.04925294      48.89351055      49.94621534
C       48.60008797      50.26135835      50.23443104
C       49.63792841      51.16291571      50.58616345
C       50.97883766      50.85650861      50.60208767
C       51.40914741      49.65468720      50.04523471
C       50.41567380      48.65497080      49.80625640
H       48.34741867      48.08811336      49.69670149
H       47.56117817      50.62623568      50.41050395
H       49.36522127      52.22671598      50.64969879
H       51.70249511      51.63071413      50.65586831
H       52.43882183      49.60657448      49.68707596
H       50.84521141      47.77328402      49.34413169
