12
Lattice="100.0 0.0 0.0 0.0 100.0 0.0 0.0 0.0 100.0" Properties=species:S:1:pos:R:3 Energy=-145425.7353140047 pbc="F F F"
C       49.03120000      49.03430000      49.73080000
C       48.64800000      50.35300000      50.04990000
C       49.54270000      51.30520000      50.40620000
C       50.88020000      50.93600000      50.30020000
C       51.31570000      49.70690000      49.90810000
C       50.42270000      48.67620000      49.52500000
H       48.19540000      48.47300000      49.34120000
H       47.59500000      50.69940000      50.10060000
H       49.32350000      52.33470000      50.70300000
H       51.67150000      51.60170000      50.56920000
H       52.40500000      49.54280000      50.09890000
H       50.78520000      47.66530000      49.29700000
