16
Lattice="100.0 0.0 0.0 0.0 100.0 0.0 0.0 0.0 100.0" Properties=species:S:1:pos:R:3 Energy=-310655.03125 Energy_pyscf=-310653.4098909833 Energy_nn=-310655.375 pbc="F F F"
C       51.93719358      50.04157476      50.24920777
C       50.43021536      49.79273999      50.28308003
C       49.58520856      50.96533487      50.08331661
O       50.11384423      52.23262347      49.81965724
C       48.18521228      50.85680227      49.86839534
C       47.61210463      49.52670034      49.94617472
C       48.36538982      48.44847731      50.12944867
C       49.78727332      48.64223747      49.98616231
O       52.59768323      51.12936210      50.15836364
O       52.44942507      48.81885545      50.20648656
H       51.02032724      52.25361589      50.25025152
H       47.82031201      51.87468551      49.90470797
H       46.53145934      49.40588835      49.59110356
H       47.91631285      47.51787818      49.90539271
H       50.22007139      47.68906373      50.15464505
H       53.39364738      48.86253864      50.59183995
