16
Lattice="100.0 0.0 0.0 0.0 100.0 0.0 0.0 0.0 100.0" Properties=species:S:1:pos:R:3 Energy=-310655.375 Energy_pyscf=-310652.4420248754 Energy_nn=-310657.875 pbc="F F F"
C       51.82260921      50.14256997      50.09955038
C       50.44516120      50.00926004      50.04977633
C       49.55662364      51.18894426      49.98121707
O       50.02855576      52.48652619      50.04824662
C       48.16558058      50.94132629      50.05694446
C       47.77082352      49.64831112      49.81185671
C       48.39622243      48.47617946      50.10487466
C       49.82274876      48.72196588      50.30737573
O       52.56428989      51.15180032      50.10673345
O       52.39452464      48.84009321      50.56784019
H       50.97771947      52.44947616      50.18773270
H       47.53476610      51.75051103      50.01728751
H       46.77789491      49.69954059      49.54883609
H       47.94581080      47.57131912      50.14323864
H       50.42152552      47.89207346      50.59288425
H       53.22181216      48.78841825      50.01742182
