16
Lattice="100.0 0.0 0.0 0.0 100.0 0.0 0.0 0.0 100.0" Properties=species:S:1:pos:R:3 Energy=-310682.5 Energy_pyscf=-310677.02910714946 Energy_nn=-310682.3125 pbc="F F F"
C       51.80667708      49.96670292      50.19748838
C       50.39526876      49.90554438      50.14061771
C       49.62933173      51.09036871      49.98284022
O       50.13967887      52.28168840      49.91291081
C       48.23609627      50.84059843      49.96413377
C       47.60333436      49.53549984      49.83167536
C       48.43100906      48.47188974      50.02766314
C       49.74369081      48.61708617      50.21964137
O       52.44991048      51.05619463      50.10311099
O       52.43108017      48.80849758      50.31854086
H       51.11443531      52.06249533      50.10271634
H       47.45184874      51.69593400      50.05845968
H       46.61005092      49.44086240      49.38963979
H       47.87714948      47.56334838      49.93646349
H       50.40040963      47.68905132      50.24357005
H       53.41676829      48.77942091      50.51505381
