16
Lattice="100.0 0.0 0.0 0.0 100.0 0.0 0.0 0.0 100.0" Properties=species:S:1:pos:R:3 Energy=-310665.8125 Energy_pyscf=-310666.18645067204 Energy_nn=-310669.84375 pbc="F F F"
C       51.97275078      50.11215725      50.21594711
C       50.46516265      50.06551193      50.28514345
C       49.57258229      51.11490825      50.05041286
O       50.03044868      52.41048796      50.01822897
C       48.24617571      50.88453823      49.82517437
C       47.66590549      49.74914376      50.10810471
C       48.44430572      48.64747107      50.33080478
C       49.85986434      48.85413774      50.39124804
O       52.65344467      51.11751090      50.51630895
O       52.48987027      48.87261629      50.13760136
H       50.91440639      52.35342626      50.39181144
H       47.84356625      51.85344898      49.50895340
H       46.63632400      49.47361369      49.87767303
H       47.81478989      47.76436091      50.24157145
H       50.38031390      47.89868778      50.48255868
H       53.42586489      49.08125447      50.01182180
