16
Lattice="100.0 0.0 0.0 0.0 100.0 0.0 0.0 0.0 100.0" Properties=species:S:1:pos:R:3 Energy=-310654.15625 Energy_pyscf=-310651.90406997217 Energy_nn=-310655.8125 pbc="F F F"
C       51.86730673      49.94747534      50.09060328
C       50.42676217      49.89471587      49.92297139
C       49.56899264      51.01198285      49.70987273
O       50.03356035      52.28612735      49.40637042
C       48.27567950      50.91837015      49.70457902
C       47.63260368      49.65159193      49.80062789
C       48.33049405      48.42907584      49.87310138
C       49.66362494      48.69891171      50.05861938
O       52.40188477      51.03107272      50.52852147
O       52.48183127      48.98503251      49.54831223
H       50.89507493      52.49033854      49.87584145
H       47.73205347      51.90648249      49.59581607
H       46.53398790      49.69552295      49.72164219
H       48.08472256      47.43717861      50.04421137
H       50.18579333      47.81359409      50.08472037
H       53.27823332      49.00585039      50.02026672
