16
Lattice="100.0 0.0 0.0 0.0 100.0 0.0 0.0 0.0 100.0" Properties=species:S:1:pos:R:3 Energy=-310668.34375 Energy_pyscf=-310668.89287606353 Energy_nn=-310670.0 pbc="F F F"
C       51.83308034      49.92253941      50.21835179
C       50.39415082      49.72495695      50.14895985
C       49.53588247      50.86669842      49.96980921
O       49.97225483      52.05343469      49.77662644
C       48.11655695      50.77575612      49.68891673
C       47.57970658      49.54391926      49.94690906
C       48.39006324      48.42684995      50.13800816
C       49.69791906      48.39810884      50.14271940
O       52.44932853      50.94251320      50.31243396
O       52.51749335      48.78742537      49.94059516
H       50.95247604      52.27094176      50.16277698
H       47.49669557      51.64364085      49.44805015
H       46.54077058      49.54755520      49.80436348
H       47.69992510      47.52803928      50.37146557
H       50.21961476      47.43291989      50.23114188
H       53.44910417      49.09061706      49.75164616
