16
Lattice="100.0 0.0 0.0 0.0 100.0 0.0 0.0 0.0 100.0" Properties=species:S:1:pos:R:3 Energy=-310680.21875 Energy_pyscf=-310678.50517628185 Energy_nn=-310680.96875 pbc="F F F"
C       51.84179474      50.24686611      50.22752477
C       50.41369247      50.13748008      50.18695178
C       49.59392770      51.27800585      49.89900461
O       50.08695463      52.45314856      50.01755444
C       48.21849582      51.14528242      49.74410375
C       47.67307173      49.92645062      49.97999481
C       48.43341735      48.68931845      50.14275800
C       49.83667331      48.87089020      50.03660961
O       52.51709271      51.27960848      50.35424563
O       52.46436323      49.04566351      50.14159244
H       51.05499414      52.45131799      49.84117911
H       47.63715578      52.07652329      49.55550948
H       46.60377640      49.80065252      49.96432346
H       48.12560599      47.76419172      50.41410275
H       50.45903888      47.98647689      50.05229361
H       53.37185720      49.38291988      50.08998143
