16
Lattice="100.0 0.0 0.0 0.0 100.0 0.0 0.0 0.0 100.0" Properties=species:S:1:pos:R:3 Energy=-310650.0 Energy_pyscf=-310651.34694925963 Energy_nn=-310655.84375 pbc="F F F"
C       51.79406976      50.13435676      50.27964853
C       50.35107216      49.92538973      49.99763755
C       49.51703801      51.06898094      49.87325641
O       50.15658057      52.31507558      49.60483457
C       48.12721487      51.14633175      49.96605620
C       47.64786085      49.80540189      50.11027820
C       48.37321104      48.62162452      49.98028491
C       49.71669755      48.70857224      50.20194527
O       52.27827749      51.18447674      50.63710660
O       52.70189914      49.14850051      49.65599420
H       51.21558834      52.27597313      49.91991737
H       47.53229457      51.96131959      49.65175551
H       46.63998750      49.58780390      50.17049246
H       47.81020008      47.67474646      49.71116827
H       50.28208594      47.74660973      50.31185864
H       53.47129439      49.42447741      50.10984431
