16
Lattice="100.0 0.0 0.0 0.0 100.0 0.0 0.0 0.0 100.0" Properties=species:S:1:pos:R:3 Energy=-310676.1875 Energy_pyscf=-310674.6669688661 Energy_nn=-310676.09375 pbc="F F F"
C       51.93779571      49.99621274      50.25169737
C       50.39793336      50.04826651      50.28530636
C       49.53951348      51.13948300      50.04682695
O       50.07612251      52.40219391      49.99253346
C       48.12188066      50.95501730      49.90261668
C       47.59126611      49.67759703      49.89586902
C       48.48455240      48.61978681      49.92026458
C       49.81806071      48.78639385      50.27756724
O       52.67060053      51.02597361      50.31711311
O       52.57097999      48.75389356      50.27049184
H       51.02088382      52.44006897      49.68371537
H       47.44483651      51.84539406      49.80023470
H       46.59575980      49.31303837      49.85649998
H       48.13148354      47.58297294      50.02409033
H       50.45739774      47.96820433      50.49055440
H       53.46689851      48.94772376      50.00258964
