16
Lattice="100.0 0.0 0.0 0.0 100.0 0.0 0.0 0.0 100.0" Properties=species:S:1:pos:R:3 Energy=-310649.25 Energy_pyscf=-310646.8207326695 Energy_nn=-310654.15625 pbc="F F F"
C       51.89314683      49.97556258      49.86900481
C       50.54880059      49.91392157      49.47350596
C       49.63410599      51.03819232      49.60491189
O       50.07026942      52.31139962      49.66736745
C       48.27733623      50.93946755      49.59492128
C       47.69398873      49.67965530      49.86433452
C       48.57634043      48.63334909      49.46444796
C       49.89126131      48.58950628      49.39311456
O       52.61574961      50.80629535      49.20697021
O       52.37438967      49.08156720      50.66192058
H       51.06200417      52.27626385      49.35585013
H       47.85768207      51.82183290      49.89149124
H       46.69194146      49.47569478      50.06158905
H       47.97652196      47.68562365      49.62980862
H       50.48221084      47.69009221      49.21435266
H       53.28410581      49.26219886      50.80102295
