16
Lattice="100.0 0.0 0.0 0.0 100.0 0.0 0.0 0.0 100.0" Properties=species:S:1:pos:R:3 Energy=-310656.90625 Energy_pyscf=-310644.83576511196 Energy_nn=-310659.59375 pbc="F F F"
C       51.87250332      49.99135186      50.19012882
C       50.44079808      49.89858871      50.29714989
C       49.58554280      51.09602053      50.12707959
O       50.14399660      52.31390292      50.17545248
C       48.25947236      51.00875813      49.58197032
C       47.55067186      49.83473363      49.85569763
C       48.38379724      48.79222296      50.17451897
C       49.82206681      48.63277574      50.19546290
O       52.47845019      51.08894307      50.05119738
O       52.71661575      48.92677914      50.18728026
H       51.09504936      52.40724659      49.83437849
H       47.72326318      51.85850371      49.29060315
H       46.62074107      49.80061935      49.45898248
H       48.12851729      47.77959013      50.51826505
H       50.14655034      47.61470548      50.55366549
H       53.47806458      49.45220046      50.11035383
