16
Lattice="100.0 0.0 0.0 0.0 100.0 0.0 0.0 0.0 100.0" Properties=species:S:1:pos:R:3 Energy=-310687.46875 Energy_pyscf=-310687.0700534917 Energy_nn=-310686.78125 pbc="F F F"
C       51.98604835      50.11327167      50.03706463
C       50.48839703      50.00852354      49.79495589
C       49.66731553      51.19884833      49.88169688
O       50.21035549      52.43460243      49.92344738
C       48.25251714      51.06758761      50.05367067
C       47.67192084      49.79480923      49.88463466
C       48.38575037      48.61055253      49.90128598
C       49.77702950      48.74123967      49.85750848
O       52.58185871      51.19541085      49.86781124
O       52.62801184      48.97955653      50.40844524
H       51.19947735      52.22102979      49.93825482
H       47.65088531      52.00898411      50.12092287
H       46.49365233      49.88818729      50.07146317
H       47.87898137      47.61853370      49.98479991
H       50.31751063      47.84011833      49.73731810
H       53.52909367      49.33388373      50.35599458
