16
Lattice="100.0 0.0 0.0 0.0 100.0 0.0 0.0 0.0 100.0" Properties=species:S:1:pos:R:3 Energy=-310667.59375 Energy_pyscf=-310668.7411278345 Energy_nn=-310663.90625 pbc="F F F"
C       51.88712041      50.33473810      50.25296793
C       50.46509849      50.12721397      50.09680999
C       49.55193718      51.29014752      50.06320967
O       50.10526537      52.52295271      49.80354718
C       48.15236173      51.17793919      49.97974461
C       47.61966279      49.93411432      49.93093268
C       48.37218053      48.74583988      50.07853409
C       49.85596949      48.90860240      50.08797606
O       52.66386100      51.34195660      50.32646797
O       52.54893527      49.06114375      50.02887170
H       51.05722069      52.34724245      49.89106026
H       47.51258717      51.93874259      49.57797332
H       46.50240057      49.78876016      49.81388162
H       48.04971194      47.77745458      50.50471511
H       50.47432508      47.96898154      49.95356655
H       53.47616773      49.26023681      50.24795766
