16
Lattice="100.0 0.0 0.0 0.0 100.0 0.0 0.0 0.0 100.0" Properties=species:S:1:pos:R:3 Energy=-310692.65625 Energy_pyscf=-310691.6855550503 Energy_nn=-310691.625 pbc="F F F"
C       51.92945538      50.08725724      50.05014560
C       50.46942256      49.93454422      49.96152481
C       49.67856899      51.14899697      49.86608087
O       50.30127509      52.33672291      49.75714029
C       48.28383209      51.05579580      49.87581776
C       47.66439463      49.74263317      49.91475461
C       48.46328422      48.56462491      49.89816466
C       49.84742861      48.66486336      49.85780469
O       52.50363322      51.21705380      50.01671663
O       52.64178935      48.98108177      50.43404675
H       51.39183423      52.20174242      49.79864845
H       47.69438373      51.96997770      49.85558588
H       46.62364831      49.52983798      49.81855023
H       48.03989987      47.62368124      49.65345055
H       50.47944739      47.76367859      49.81200223
H       53.62782390      49.25059759      50.44415514
