16
Lattice="100.0 0.0 0.0 0.0 100.0 0.0 0.0 0.0 100.0" Properties=species:S:1:pos:R:3 Energy=-310694.46875 Energy_pyscf=-310692.7516056085 Energy_nn=-310693.28125 pbc="F F F"
C       51.88399023      50.15353461      50.21036609
C       50.42376337      50.03568979      50.12214094
C       49.61584980      51.19643012      50.00269125
O       50.15273198      52.43956871      50.13919054
C       48.18601695      51.06157173      49.89606227
C       47.65595205      49.74634080      49.95865641
C       48.42937977      48.55794006      50.25894329
C       49.80207188      48.75338857      50.21513435
O       52.47678086      51.21857773      50.23098660
O       52.48788211      48.96725410      50.24831645
H       51.16065959      52.36606868      50.06950306
H       47.56519337      51.90206177      49.61819332
H       46.55042460      49.76095888      49.81026730
H       47.83833847      47.57515049      50.27485033
H       50.41288880      47.92635976      50.48571785
H       53.45664433      49.20096456      50.33599327
