16
Lattice="100.0 0.0 0.0 0.0 100.0 0.0 0.0 0.0 100.0" Properties=species:S:1:pos:R:3 Energy=-310653.15625 Energy_pyscf=-310647.6667409812 Energy_nn=-310654.71875 pbc="F F F"
C       51.89851541      49.87358214      49.97716342
C       50.44619894      49.82575050      50.14005918
C       49.59805723      50.94215325      49.62871333
O       50.00100208      52.32797958      49.77307372
C       48.19334162      50.68978130      49.36390941
C       47.72161037      49.40349646      49.55489407
C       48.49905285      48.30210797      49.95563525
C       49.76269175      48.70311067      50.37047745
O       52.52297823      50.82375791      50.49325409
O       52.37366960      48.79970655      49.29639366
H       50.85606020      52.60014471      50.10299789
H       47.56291017      51.58157249      49.29053950
H       46.68452228      49.47432680      49.27410081
H       48.22882490      47.29202754      50.22774694
H       50.18662390      47.82003692      50.84834211
H       53.31344170      48.80424199      49.50876389
