16
Lattice="100.0 0.0 0.0 0.0 100.0 0.0 0.0 0.0 100.0" Properties=species:S:1:pos:R:3 Energy=-310681.875 Energy_pyscf=-310682.3012086786 Energy_nn=-310683.1875 pbc="F F F"
C       51.93984704      50.07056378      50.07833215
C       50.46415947      49.98400816      49.89998741
C       49.68703461      51.17574148      49.93018549
O       50.16196137      52.47473348      49.80575405
C       48.29680265      51.05858639      49.96479906
C       47.59357455      49.80345442      49.82628919
C       48.37962507      48.58134410      49.91436671
C       49.73553866      48.75749215      49.81405259
O       52.46339235      51.17466815      49.95304603
O       52.67133417      48.94528448      50.22425477
H       51.12886478      52.34372532      49.97749981
H       47.76468598      52.00201211      50.17765611
H       46.55369759      49.95300385      50.06477360
H       47.81448812      47.61267925      50.03391198
H       50.44369623      47.83217968      49.77124619
H       53.61046429      49.32808979      50.41845105
