16
Lattice="100.0 0.0 0.0 0.0 100.0 0.0 0.0 0.0 100.0" Properties=species:S:1:pos:R:3 Energy=-310650.0 Energy_pyscf=-310648.1488527263 Energy_nn=-310654.84375 pbc="F F F"
C       52.02229570      49.93015639      49.91593935
C       50.51228462      49.81939034      49.66543404
C       49.63720941      50.97651988      49.54622215
O       50.01995780      52.35010635      49.42412741
C       48.26728843      50.90729557      49.86385254
C       47.73154469      49.54826821      49.55384956
C       48.50766280      48.46990232      49.33234776
C       49.89320733      48.63128693      49.46572335
O       52.67447785      50.87534343      49.43422197
O       52.60753765      48.92620700      50.66745019
H       50.99132828      52.51510701      49.69738464
H       47.76801175      51.85440963      49.84212598
H       46.61423863      49.64741623      49.54205682
H       48.05243793      47.40807136      49.53417213
H       50.49825924      47.82424578      49.54584779
H       53.48491077      48.73955483      50.51655057
