16
Lattice="100.0 0.0 0.0 0.0 100.0 0.0 0.0 0.0 100.0" Properties=species:S:1:pos:R:3 Energy=-310668.0 Energy_pyscf=-310667.8269738966 Energy_nn=-310667.8125 pbc="F F F"
C       51.92990282      50.03689184      50.19721190
C       50.38515054      49.95187397      50.27444722
C       49.47268500      50.99798063      50.07386145
O       50.07764599      52.29973036      49.90738020
C       48.08621024      50.80621873      50.02328588
C       47.51149535      49.58940553      49.87009273
C       48.45677970      48.48171571      49.94192147
C       49.83079149      48.61256440      50.36062817
O       52.64517880      51.00641798      50.03266233
O       52.36039838      48.72709836      50.12724804
H       51.09836188      52.13208865      50.14515458
H       47.53809316      51.81413594      49.90431281
H       46.51550588      49.47386922      49.37001294
H       48.09520479      47.47274051      49.80196745
H       50.49249869      47.76567071      50.41334819
H       53.27604926      48.62370948      50.48281428
