16
Lattice="100.0 0.0 0.0 0.0 100.0 0.0 0.0 0.0 100.0" Properties=species:S:1:pos:R:3 Energy=-310666.3125 Energy_pyscf=-310666.64846671006 Energy_nn=-310665.5 pbc="F F F"
C       51.86494654      50.17835004      50.04174433
C       50.39945363      49.85588439      49.90182783
C       49.66527190      51.10775273      49.70877806
O       50.19352253      52.37719022      49.74112871
C       48.33835558      51.05037407      49.92973798
C       47.72890833      49.78107408      49.88321862
C       48.37447607      48.53164646      49.76019225
C       49.82600677      48.61603082      49.94431750
O       52.41386744      51.25591317      49.92541050
O       52.56970005      49.05547473      50.49841061
H       51.17257008      52.44556326      49.42699450
H       47.82769587      51.91771823      49.97805086
H       46.60120148      49.89082109      49.91346327
H       48.08421477      47.54370068      49.62780185
H       50.45181457      47.78584073      50.00114008
H       53.56076849      49.17257183      50.30748174
