16
Lattice="100.0 0.0 0.0 0.0 100.0 0.0 0.0 0.0 100.0" Properties=species:S:1:pos:R:3 Energy=-310676.46875 Energy_pyscf=-310676.0355662367 Energy_nn=-310678.0625 pbc="F F F"
C       51.81072749      50.02230614      50.25127624
C       50.40863167      49.99291552      50.28998400
C       49.60839220      51.16354439      50.22352458
O       50.13828470      52.38161899      49.92456632
C       48.23234631      51.00676890      49.98289833
C       47.64169170      49.62750878      49.99191893
C       48.43395363      48.54650938      50.11788152
C       49.84716214      48.78262095      50.28672111
O       52.49636562      51.10999100      50.04803114
O       52.48008137      48.87075040      50.47059645
H       51.10013952      52.29186562      49.80804377
H       47.55007035      51.81258091      49.62110962
H       46.56464211      49.44175709      49.80647521
H       48.08648571      47.48651162      49.92965687
H       50.56849955      47.90029273      50.25237913
H       53.32055527      49.08620646      50.02415915
