16
Lattice="100.0 0.0 0.0 0.0 100.0 0.0 0.0 0.0 100.0" Properties=species:S:1:pos:R:3 Energy=-310657.59375 Energy_pyscf=-310659.1039079183 Energy_nn=-310659.03125 pbc="F F F"
C       51.91714314      50.13842812      50.19032629
C       50.42528195      50.00586468      49.96787093
C       49.66821970      51.26678789      49.89414885
O       50.37740238      52.43560113      49.91803902
C       48.26361647      51.07882231      49.89761193
C       47.64944977      49.85045700      49.93465341
C       48.38823012      48.53890841      49.94852789
C       49.68677018      48.77082660      49.99877086
O       52.48084981      51.19346311      49.92192156
O       52.66960034      48.98373227      50.19919515
H       51.31495762      52.07289602      50.24393452
H       47.51827473      51.85460480      49.85375359
H       46.68216218      49.89415596      50.03593758
H       47.79956355      47.68134507      49.93590134
H       50.36149327      47.89402583      49.94245700
H       53.52679626      49.45147622      49.96315658
