16
Lattice="100.0 0.0 0.0 0.0 100.0 0.0 0.0 0.0 100.0" Properties=species:S:1:pos:R:3 Energy=-310660.125 Energy_pyscf=-310652.3141642307 Energy_nn=-310660.28125 pbc="F F F"
C       51.82024096      49.86492032      50.10817474
C       50.37056716      49.79330062      50.33366259
C       49.52460759      51.04018434      50.31629992
O       49.91407926      52.27759091      50.16777851
C       48.21869375      50.77579803      49.77749770
C       47.64783816      49.59488221      49.77609643
C       48.36811899      48.41186419      50.17831015
C       49.69542905      48.59243125      50.40165994
O       52.45395429      50.86109487      50.39183656
O       52.38909058      48.68961694      50.10382472
H       50.80768781      52.47421163      50.45677413
H       47.75619528      51.74270310      49.25744779
H       46.65116496      49.29056793      49.53630118
H       47.97249105      47.48040299      50.58370852
H       50.31285540      47.75907992      50.56458396
H       53.28095653      48.91828639      50.13344839
