16
Lattice="100.0 0.0 0.0 0.0 100.0 0.0 0.0 0.0 100.0" Properties=species:S:1:pos:R:3 Energy=-310651.40625 Energy_pyscf=-310637.0921729769 Energy_nn=-310655.5625 pbc="F F F"
C       51.80997720      50.19829246      50.14450220
C       50.44736680      50.00990420      49.59872324
C       49.61314764      51.18237228      49.52710279
O       50.07516057      52.28146632      49.98432431
C       48.16262563      51.04726327      49.52932524
C       47.60684230      49.75517533      50.02442081
C       48.41885935      48.63447394      50.12506890
C       49.71880944      48.81926507      49.65753311
O       52.34044967      51.38480824      50.16146303
O       52.48236035      48.97313514      50.41522862
H       51.05658786      52.04995373      50.15142743
H       47.39074178      51.88099403      49.59952157
H       46.52671925      49.85090685      49.70869337
H       47.87192462      47.69567439      50.22070972
H       50.13564686      47.85726033      49.47625120
H       53.38270369      49.07345738      50.11054538
