16
Lattice="100.0 0.0 0.0 0.0 100.0 0.0 0.0 0.0 100.0" Properties=species:S:1:pos:R:3 Energy=-310657.0625 Energy_pyscf=-310647.7522464381 Energy_nn=-310660.90625 pbc="F F F"
C       51.85967378      50.07349420      50.09487492
C       50.42176843      49.89041102      50.19639229
C       49.58016215      50.99310264      50.16007238
O       50.16586708      52.19730448      50.37802747
C       48.29509755      51.01194227      49.78622318
C       47.63483666      49.83294956      49.76016525
C       48.39238437      48.72482388      50.08938462
C       49.75180653      48.66303086      50.49021162
O       52.43116318      51.16941250      49.72623811
O       52.71816966      49.07221272      50.44837458
H       50.95095577      52.41773688      49.79181121
H       47.93108327      51.82859708      49.29725680
H       46.63494962      49.83649392      49.45011473
H       47.92735067      47.79574939      50.23157485
H       50.12355523      47.70666577      50.72498461
H       53.63015697      49.36263091      49.95500440
