16
Lattice="100.0 0.0 0.0 0.0 100.0 0.0 0.0 0.0 100.0" Properties=species:S:1:pos:R:3 Energy=-310659.25 Energy_pyscf=-310656.0586854362 Energy_nn=-310658.84375 pbc="F F F"
C       51.92214584      50.15996895      50.24190155
C       50.41472398      49.96326825      49.91591992
C       49.63118782      51.17941123      49.79464146
O       50.26823769      52.37799675      49.73797797
C       48.25606479      51.07118098      49.87041759
C       47.59389322      49.82542697      49.81125190
C       48.44157042      48.61665671      49.94665231
C       49.76328874      48.67498528      49.89817724
O       52.64266840      51.25762723      50.09622244
O       52.62145680      48.95374340      50.19570329
H       51.20834861      52.20938038      50.07855101
H       47.66596523      52.08073113      50.19363443
H       46.55643879      49.93805989      50.08627525
H       47.89735519      47.55984985      50.11819646
H       50.42543959      47.84389575      49.63002230
H       53.45104986      49.37312663      50.22395595
