16
Lattice="100.0 0.0 0.0 0.0 100.0 0.0 0.0 0.0 100.0" Properties=species:S:1:pos:R:3 Energy=-310687.46875 Energy_pyscf=-310686.4508985772 Energy_nn=-310688.0 pbc="F F F"
C       51.91179397      50.27441014      50.22721325
C       50.42737562      50.16821057      50.09805934
C       49.59250344      51.24630141      49.89031689
O       50.05614694      52.55109123      49.83517412
C       48.19170516      51.07621676      49.84046716
C       47.64295896      49.89419987      50.07975893
C       48.39767336      48.70506547      50.05220698
C       49.78961908      48.92333491      50.10501095
O       52.57909473      51.28431019      50.35174652
O       52.48961212      49.07313137      50.11571571
H       51.07085287      52.49251637      49.87323685
H       47.65085675      52.02980774      49.63982421
H       46.59984807      49.81259934      49.97116421
H       48.01977018      47.65393319      50.23467709
H       50.43076346      48.00925403      50.19820481
H       53.41783063      49.32899277      50.17287396
