16
Lattice="100.0 0.0 0.0 0.0 100.0 0.0 0.0 0.0 100.0" Properties=species:S:1:pos:R:3 Energy=-310687.65625 Energy_pyscf=-310684.18307228456 Energy_nn=-310688.03125 pbc="F F F"
C       51.81937403      50.15382193      50.02230793
C       50.33761814      50.01523161      49.89948992
C       49.50997409      51.19847335      49.80446119
O       50.06604204      52.42315235      49.76672818
C       48.15590501      51.09878078      49.80946254
C       47.57620730      49.74894488      49.81287166
C       48.32164689      48.66087327      49.89588970
C       49.76199758      48.75820019      49.82447521
O       52.38459525      51.28980923      50.05036412
O       52.46923928      48.92933946      50.12122230
H       51.00595985      52.22889443      49.95601691
H       47.49512007      51.99210668      49.73836204
H       46.50996283      49.73533536      49.65344415
H       47.75858848      47.61027212      49.99880089
H       50.42686509      47.86589353      49.77750399
H       53.46153344      48.95705738      50.29370832
