16
Lattice="100.0 0.0 0.0 0.0 100.0 0.0 0.0 0.0 100.0" Properties=species:S:1:pos:R:3 Energy=-310681.15625 Energy_pyscf=-310682.9790852517 Energy_nn=-310679.46875 pbc="F F F"
C       51.88407363      50.25153405      50.14800616
C       50.45366275      50.13001928      50.14596318
C       49.58006372      51.24850168      49.90510228
O       50.07390244      52.47601629      49.79044956
C       48.19236065      51.17002283      49.82433183
C       47.60763998      49.94630069      50.00736744
C       48.38115638      48.74757129      50.05187663
C       49.80583094      48.88520206      50.09738687
O       52.48822257      51.34584132      50.43250818
O       52.67222865      49.11050300      49.97369901
H       51.02200718      52.38745066      49.92187348
H       47.55196240      51.99202170      49.69186001
H       46.57337863      49.82281434      49.85593657
H       48.02523460      47.75900703      50.41263698
H       50.39209016      47.97828917      50.12465298
H       53.60910043      49.26073572      50.25127798
