16
Lattice="100.0 0.0 0.0 0.0 100.0 0.0 0.0 0.0 100.0" Properties=species:S:1:pos:R:3 Energy=-310684.3125 Energy_pyscf=-310680.1849200409 Energy_nn=-310681.0 pbc="F F F"
C       52.00364778      50.07184838      50.03114331
C       50.53131993      49.92742291      49.82849819
C       49.71475791      51.08639921      49.82634783
O       50.27536116      52.31420593      49.75091950
C       48.27033565      51.03880267      49.98788486
C       47.66265637      49.74208124      49.93860955
C       48.41809874      48.60095549      49.78904458
C       49.85281118      48.73338561      49.78601998
O       52.66355450      51.15364066      50.04719356
O       52.68381948      48.98746392      50.52000145
H       51.32509095      52.29581754      49.72917744
H       47.69932489      51.97324936      49.89650794
H       46.64961036      49.54148606      49.89558076
H       48.02172415      47.58855376      49.59328082
H       50.33196767      47.64900448      49.86727806
H       53.56479974      49.39383309      50.50343111
