16
Lattice="100.0 0.0 0.0 0.0 100.0 0.0 0.0 0.0 100.0" Properties=species:S:1:pos:R:3 Energy=-310695.125 Energy_pyscf=-310690.2996021943 Energy_nn=-310693.15625 pbc="F F F"
C       51.81473916      49.95892216      50.17505053
C       50.35173943      49.85468281      50.15698767
C       49.52732192      50.99824029      50.02431405
O       50.00413290      52.21782640      49.70314581
C       48.10620606      50.89627272      50.01064675
C       47.60286072      49.55336774      49.98510964
C       48.40417299      48.46874928      50.03633336
C       49.75605164      48.59305057      50.06688998
O       52.46904768      51.02967806      50.22554895
O       52.46201419      48.74512489      50.20338266
H       50.93801641      52.24765573      49.97363882
H       47.47544925      51.73819666      49.93775809
H       46.48067183      49.45858855      49.91057266
H       47.80640680      47.54095580      49.98771463
H       50.43513223      47.74303746      50.04673726
H       53.40609438      48.94857891      50.11768402
