16
Lattice="100.0 0.0 0.0 0.0 100.0 0.0 0.0 0.0 100.0" Properties=species:S:1:pos:R:3 Energy=-310689.4375 Energy_pyscf=-310690.40841197706 Energy_nn=-310690.09375 pbc="F F F"
C       51.90425385      50.15323194      50.07218242
C       50.44312128      49.97549035      49.96461300
C       49.66337703      51.16788168      49.89493003
O       50.20910319      52.48309736      49.86882413
C       48.29143975      51.07775698      50.03528915
C       47.73488971      49.81399932      49.95537050
C       48.41123141      48.57768264      49.88459846
C       49.75706180      48.71722784      49.93409941
O       52.47483715      51.27121297      50.09860086
O       52.57496058      48.97441350      50.21216593
H       51.18653539      52.35944114      49.82491085
H       47.67134946      51.99343353      50.13918760
H       46.61812441      49.89835287      49.94020760
H       47.90981362      47.63709552      49.99771922
H       50.39309950      47.85846973      49.77742494
H       53.53174445      49.13860834      50.26606181
