16
Lattice="100.0 0.0 0.0 0.0 100.0 0.0 0.0 0.0 100.0" Properties=species:S:1:pos:R:3 Energy=-310664.25 Energy_pyscf=-310670.127450736 Energy_nn=-310664.5 pbc="F F F"
C       51.82432072      50.05452405      49.95430461
C       50.41021690      49.90340427      49.90209428
C       49.55360606      51.00357575      49.69067053
O       50.07973385      52.23973505      49.54241794
C       48.17996681      50.92349800      49.63743572
C       47.52705483      49.74947036      49.86461042
C       48.37659282      48.60557123      49.83557688
C       49.85915270      48.60175068      49.97825155
O       52.26971290      51.12723897      50.27191236
O       52.56789320      48.90506542      49.75748492
H       50.79328889      52.12967856      50.18960063
H       47.75976382      51.84692833      49.41758872
H       46.45363755      49.70360461      49.76968898
H       47.80510827      47.61672770      50.07824445
H       50.42805293      47.68810163      50.18615630
H       53.50266563      49.06949335      49.90062925
