16
Lattice="100.0 0.0 0.0 0.0 100.0 0.0 0.0 0.0 100.0" Properties=species:S:1:pos:R:3 Energy=-310687.53125 Energy_pyscf=-310691.28194349905 Energy_nn=-310687.65625 pbc="F F F"
C       51.94602999      50.13317427      50.04280578
C       50.44236612      50.00614515      49.95799396
C       49.62682967      51.22089473      49.86637608
O       50.18927990      52.46196478      49.81643653
C       48.28264214      51.08062089      49.96451662
C       47.65886663      49.84063972      49.95190885
C       48.44276340      48.64945023      49.97162350
C       49.80484102      48.72627480      49.92143520
O       52.54802602      51.22132579      49.96498038
O       52.56382101      48.98209724      50.29226578
H       51.14772347      52.16911541      49.98495537
H       47.65514847      51.94997024      50.13024544
H       46.49021282      49.89330275      49.98907211
H       47.86764438      47.68578731      49.98131377
H       50.49619332      47.88738574      49.73880001
H       53.53687160      49.17115673      50.30526961
