16
Lattice="100.0 0.0 0.0 0.0 100.0 0.0 0.0 0.0 100.0" Properties=species:S:1:pos:R:3 Energy=-310683.40625 Energy_pyscf=-310678.492434747 Energy_nn=-310682.375 pbc="F F F"
C       51.96472539      50.14699694      50.16041630
C       50.53630884      49.92453377      50.02082748
C       49.71972660      51.06661157      49.88683817
O       50.23319076      52.26706885      49.67760516
C       48.32183108      51.01133431      50.02564905
C       47.64716836      49.70383425      49.80700376
C       48.52347747      48.62725803      49.77953752
C       49.91631938      48.67535966      49.90913367
O       52.60093474      51.24252453      50.20299544
O       52.63893785      48.97125708      50.37550377
H       51.19697179      52.15311152      49.54921485
H       47.82170034      51.98573669      49.86832214
H       46.45086633      49.62522429      49.91883500
H       47.89635016      47.63177242      49.57543450
H       50.57115280      47.79109146      49.78497533
H       53.60930281      49.25890597      50.46272162
