16
Lattice="100.0 0.0 0.0 0.0 100.0 0.0 0.0 0.0 100.0" Properties=species:S:1:pos:R:3 Energy=-310673.1875 Energy_pyscf=-310672.27862070035 Energy_nn=-310673.625 pbc="F F F"
C       51.91383680      50.23958536      50.17283225
C       50.38948955      50.14815860      50.17961152
C       49.53508544      51.26688785      49.88767627
O       50.13432986      52.45066730      49.97355074
C       48.15918078      51.11688262      49.77019828
C       47.65934310      49.84457580      50.00493932
C       48.45037542      48.70563983      50.06536099
C       49.73158839      48.91152688      50.06413739
O       52.48863878      51.35905479      50.38887404
O       52.61081723      49.05500706      49.90346640
H       51.08803523      52.33019426      49.95438346
H       47.53191859      51.99333967      49.47263752
H       46.58213863      49.97019272      50.04459278
H       48.03961853      47.72501511      50.32467005
H       50.47473998      48.09315664      50.25178311
H       53.53898794      49.30574237      50.18226158
