16
Lattice="100.0 0.0 0.0 0.0 100.0 0.0 0.0 0.0 100.0" Properties=species:S:1:pos:R:3 Energy=-310653.90625 Energy_pyscf=-310640.83880544227 Energy_nn=-310655.03125 pbc="F F F"
C       51.88927043      50.12786894      49.94218779
C       50.42562901      49.98926251      49.83024379
C       49.56527117      51.17072309      49.56468741
O       50.02869794      52.46653812      49.86885360
C       48.19167843      51.01121358      49.56803420
C       47.71083196      49.55755355      49.69674210
C       48.49293751      48.43443994      49.88329415
C       49.86351075      48.74801380      50.20451299
O       52.58163753      51.00829103      49.42344724
O       52.53128780      48.89934781      50.16927251
H       51.06415434      52.20759635      49.97269099
H       47.66269190      51.83862327      49.57752986
H       46.60938010      49.58141954      49.52822900
H       48.15443116      47.49664769      49.40895209
H       50.56306637      47.92578741      50.48460219
H       53.40183390      49.09849457      50.62541473
