16
Lattice="100.0 0.0 0.0 0.0 100.0 0.0 0.0 0.0 100.0" Properties=species:S:1:pos:R:3 Energy=-310680.34375 Energy_pyscf=-310674.03503248247 Energy_nn=-310682.1875 pbc="F F F"
C       51.88148389      50.22684357      50.11536654
C       50.39997114      50.15080598      50.13420474
C       49.58822386      51.32825803      49.85665384
O       50.16063304      52.47747615      49.75394653
C       48.22842331      51.14651186      49.88354984
C       47.58642671      49.83051111      50.11319297
C       48.37646583      48.72613361      50.13225338
C       49.72381950      48.94544166      50.04435550
O       52.57206306      51.23648139      50.20343463
O       52.46552144      49.05429967      50.15561570
H       51.13566925      52.29489957      49.99946195
H       47.65590851      52.06373109      49.71561403
H       46.54840544      49.73511313      49.90498605
H       48.14418693      47.68108717      50.27497190
H       50.49883078      48.16934143      49.98742073
H       53.34845137      49.45876223      50.39459714
