16
Lattice="100.0 0.0 0.0 0.0 100.0 0.0 0.0 0.0 100.0" Properties=species:S:1:pos:R:3 Energy=-310662.625 Energy_pyscf=-310661.9345428839 Energy_nn=-310662.03125 pbc="F F F"
C       51.91032795      50.17018924      50.02550365
C       50.47602417      49.93794246      49.91812643
C       49.75799259      51.09180133      49.85278886
O       50.29391514      52.36876199      50.00056538
C       48.34989934      51.06216746      49.96806536
C       47.66892826      49.71843947      49.99579938
C       48.36746269      48.59266818      49.97901710
C       49.81117067      48.74404722      49.91490362
O       52.49378592      51.27697897      49.84603041
O       52.62822148      49.00054804      50.44190579
H       51.33756497      52.22790274      49.77931192
H       47.74028320      51.90925612      49.70462184
H       46.64153401      49.52620818      49.69692058
H       48.08942586      47.59597096      49.56599987
H       50.46462214      47.80300240      49.91751121
H       53.62278431      49.07833154      50.39050765
