16
Lattice="100.0 0.0 0.0 0.0 100.0 0.0 0.0 0.0 100.0" Properties=species:S:1:pos:R:3 Energy=-310686.96875 Energy_pyscf=-310689.07420492487 Energy_nn=-310686.5625 pbc="F F F"
C       51.93345096      50.15228022      50.04160726
C       50.43684001      49.99013318      49.86993394
C       49.66019949      51.18839276      49.85269712
O       50.20086140      52.39986501      49.79273728
C       48.24573091      51.08476280      49.94774909
C       47.68709041      49.83865343      49.95951184
C       48.46871108      48.68348735      49.99076875
C       49.86423174      48.68230287      49.98551955
O       52.56488657      51.21364483      49.98007361
O       52.50846580      48.91903127      50.23857687
H       51.17948979      52.33598667      50.02135116
H       47.65273887      51.96121630      50.14365752
H       46.51635212      49.83299356      50.02676616
H       47.86088702      47.73594668      49.92762833
H       50.50127853      47.86652403      49.72045567
H       53.45112127      49.20064614      50.35854361
