16
Lattice="100.0 0.0 0.0 0.0 100.0 0.0 0.0 0.0 100.0" Properties=species:S:1:pos:R:3 Energy=-310663.4375 Energy_pyscf=-310660.1980902427 Energy_nn=-310663.46875 pbc="F F F"
C       51.71854947      50.11164108      49.90757900
C       50.36937143      50.09815541      49.69091065
C       49.50964751      51.23616770      49.77621490
O       50.09204264      52.47834342      49.99896602
C       48.12222408      51.06278325      49.81813469
C       47.58114416      49.72116344      49.86504540
C       48.43531191      48.55310554      50.02559782
C       49.72462061      48.79385140      49.57670284
O       52.53832258      51.02512184      49.59418091
O       52.26722507      48.97974442      50.49861792
H       51.07672073      52.35259950      50.08540815
H       47.48314629      51.88966793      49.66485168
H       46.49843202      49.75731469      49.79394708
H       47.92834231      47.66690390      50.05432618
H       50.51381488      47.93070955      49.46242147
H       53.18527241      49.00047254      50.59530661
