16
Lattice="100.0 0.0 0.0 0.0 100.0 0.0 0.0 0.0 100.0" Properties=species:S:1:pos:R:3 Energy=-310686.5 Energy_pyscf=-310685.7167295011 Energy_nn=-310685.875 pbc="F F F"
C       51.90752221      50.17582774      50.08074919
C       50.48843818      50.01735452      49.83997877
C       49.66095951      51.18329237      49.86222953
O       50.24040278      52.41605325      49.90715814
C       48.28768089      51.07029900      50.03070456
C       47.66654981      49.83897264      49.90295414
C       48.40195383      48.64757180      49.85660134
C       49.75498320      48.78618833      49.83165563
O       52.50600131      51.22091882      49.84533541
O       52.56979657      49.02766927      50.33323303
H       51.24133080      52.38024647      50.01890687
H       47.67461803      51.92571343      50.15364986
H       46.55554685      49.76497048      50.01597300
H       47.78573738      47.67433120      50.03138220
H       50.42857054      47.80076269      49.81937185
H       53.56056315      49.16065213      50.33403853
