16
Lattice="100.0 0.0 0.0 0.0 100.0 0.0 0.0 0.0 100.0" Properties=species:S:1:pos:R:3 Energy=-310692.0625 Energy_pyscf=-310688.5224663412 Energy_nn=-310688.4375 pbc="F F F"
C       51.88364227      50.08494244      50.30344923
C       50.39800674      49.95957700      50.13294463
C       49.57595818      51.20163081      50.02179892
O       50.11447166      52.41268278      50.11705717
C       48.16625597      51.05734061      49.81511947
C       47.61816771      49.76579550      49.93493159
C       48.42015109      48.63235002      50.31165128
C       49.82009468      48.75532344      50.33535356
O       52.44266408      51.18123170      50.34435124
O       52.56506406      48.90330141      50.18443547
H       51.16349278      52.33522812      50.06347572
H       47.49450700      51.93937615      49.63593137
H       46.56043904      49.79559246      49.67464405
H       47.86249763      47.67491442      50.36377569
H       50.48115884      47.87892584      50.40339995
H       53.47145345      49.28789606      50.21606745
