16
Lattice="100.0 0.0 0.0 0.0 100.0 0.0 0.0 0.0 100.0" Properties=species:S:1:pos:R:3 Energy=-310688.0 Energy_pyscf=-310687.8063241738 Energy_nn=-310689.71875 pbc="F F F"
C       51.86175701      50.11003877      50.23208564
C       50.47447450      49.98993043      50.03343380
C       49.70467605      51.18974990      49.86400088
O       50.24499744      52.41782634      49.74303481
C       48.28108729      51.03714306      49.95642856
C       47.61805124      49.82022066      49.94314581
C       48.44125063      48.65861153      49.91284533
C       49.81583892      48.74086486      49.84688077
O       52.41887324      51.21343693      50.10994451
O       52.62998989      48.95604007      50.26508287
H       51.28516774      52.35476706      49.86086324
H       47.65583420      51.90504256      50.17038509
H       46.50684379      49.89808855      50.03330769
H       47.86876786      47.73940719      49.93631666
H       50.44103543      47.84215329      49.77493607
H       53.53412245      49.25010918      50.14727815
