18
Lattice="100.0 0.0 0.0 0.0 100.0 0.0 0.0 0.0 100.0" Properties=species:S:1:pos:R:3 Energy=-241625.00635169068 Energy_pyscf=-241623.70618176818 pbc="F F F" Energy_pyscf_og=-241624.75467253296
C       48.84545743      48.57568622      50.19857279
C       47.55133236      49.03993925      49.83440577
C       47.52742580      50.40015660      49.69397004
C       48.70213540      51.22860405      49.53514320
C       49.97267689      50.68253482      49.75713727
C       51.07835976      51.56425555      49.69638096
C       52.30866270      50.94071334      50.02639586
C       52.45408487      49.53821363      49.95611890
C       51.33316027      48.63392307      50.10631201
C       50.03028072      49.29474069      50.11593058
H       48.78089294      47.57229518      50.52576902
H       46.68423469      48.31480462      49.86404896
H       46.57328557      51.06440595      49.63370384
H       48.68058963      52.32548325      49.78230404
H       50.91629649      52.60367059      49.74723447
H       53.11534590      51.60174642      50.01345988
H       53.41684870      49.03636978      49.84338047
H       51.56374006      47.55086461      49.95420173
