18
Lattice="100.0 0.0 0.0 0.0 100.0 0.0 0.0 0.0 100.0" Properties=species:S:1:pos:R:3 Energy=-241627.1363518983 Energy_pyscf=-241627.90846249115 pbc="F F F" Energy_pyscf_og=-241626.87051352995
C       48.88182038      48.52650389      49.82767259
C       47.70003725      49.17702370      50.09859333
C       47.58145045      50.49273365      49.66377106
C       48.70935829      51.28486864      49.54060238
C       49.91570342      50.65727139      49.64742350
C       51.05278789      51.40306139      49.56479323
C       52.24969218      50.94743367      49.92344349
C       52.37076982      49.56567644      50.14973700
C       51.33482191      48.75092322      50.00424930
C       50.05268304      49.27312036      49.78590752
H       48.78049416      47.50154772      49.88960549
H       46.79160348      48.62449426      50.40799409
H       46.56974556      50.96962994      49.79808082
H       48.49658622      52.39205132      49.42078394
H       50.92259211      52.54670867      49.50949832
H       53.06519698      51.63799516      50.10679461
H       53.36091873      49.11495633      50.36707885
H       51.42449496      47.74110707      50.36478336
