18
Lattice="100.0 0.0 0.0 0.0 100.0 0.0 0.0 0.0 100.0" Properties=species:S:1:pos:R:3 Energy=-241637.29220720485 Energy_pyscf=-241636.52736861043 pbc="F F F" Energy_pyscf_og=-241637.015007785
C       48.85739894      48.48326864      50.10952559
C       47.61224078      49.19740886      50.10406677
C       47.49400446      50.64478120      50.03270625
C       48.64173756      51.35093363      49.79892270
C       49.94615764      50.71787319      49.86005347
C       51.05643050      51.56271246      49.81824171
C       52.20370542      51.04671443      50.18206091
C       52.40548799      49.71993124      50.47212932
C       51.36652467      48.80140453      50.35431581
C       50.07336468      49.24413642      50.04861870
H       48.82303326      47.42347254      50.34535388
H       46.71440612      48.55165539      50.23343489
H       46.51832726      51.16089890      50.20461230
H       48.67869816      52.42532739      49.53260062
H       50.78948478      52.63932446      49.69313707
H       53.04104458      51.65884700      49.96234243
H       53.46067532      49.23835578      50.44221287
H       51.63254361      47.79790882      50.50775633
