18
Lattice="100.0 0.0 0.0 0.0 100.0 0.0 0.0 0.0 100.0" Properties=species:S:1:pos:R:3 Energy=-241636.12114703015 Energy_pyscf=-241637.13991645552 pbc="F F F" Energy_pyscf_og=-241635.8623739772
C       48.77917609      48.45759815      50.16074511
C       47.61246085      49.05557351      49.90554319
C       47.42254224      50.42721436      49.75161755
C       48.53685159      51.23522108      49.80090477
C       49.83948593      50.66831276      50.13231265
C       51.00498336      51.53624311      49.93214128
C       52.31143647      50.97111749      49.93409178
C       52.41287848      49.57110636      50.04566978
C       51.32795957      48.67528408      50.35418060
C       50.00973544      49.23817403      50.31385309
H       48.85505565      47.36548935      50.07179842
H       46.82232452      48.33639382      49.67968873
H       46.58171420      51.06433795      49.34308704
H       48.35504868      52.24568050      49.52484401
H       50.88581572      52.63417711      50.13277125
H       53.13841662      51.55918459      49.59974213
H       53.46153070      49.18776205      49.82597168
H       51.43312913      47.59953311      50.37226363
