18
Lattice="100.0 0.0 0.0 0.0 100.0 0.0 0.0 0.0 100.0" Properties=species:S:1:pos:R:3 Energy=-241643.95178188354 Energy_pyscf=-241643.38889627898 pbc="F F F" Energy_pyscf_og=-241643.68385343088
C       48.82791665      48.49433978      50.28717796
C       47.61161214      49.08728982      50.20258665
C       47.47335430      50.46652420      49.94947209
C       48.64939074      51.26820889      49.77133391
C       49.96956834      50.69578696      49.86288977
C       51.15573179      51.43095875      49.90521937
C       52.35739516      50.89518577      50.20036292
C       52.54951229      49.51148950      50.25850566
C       51.36465604      48.73355355      50.22543060
C       50.05116246      49.26845841      50.15260439
H       48.95879412      47.48547072      50.56959733
H       46.70561676      48.37334568      50.39456685
H       46.54787593      50.85701283      50.12760357
H       48.60145613      52.33629357      49.44224714
H       51.09079611      52.49029982      49.78227043
H       53.19441923      51.60620150      50.20428005
H       53.49441050      48.96875761      50.37919953
H       51.34176992      47.69145699      50.19950174
