18
Lattice="100.0 0.0 0.0 0.0 100.0 0.0 0.0 0.0 100.0" Properties=species:S:1:pos:R:3 Energy=-241641.29542210873 Energy_pyscf=-241637.93280154647 pbc="F F F" Energy_pyscf_og=-241641.01695551345
C       48.89652089      48.45547407      50.26072367
C       47.61447356      49.04660913      50.17692447
C       47.48584740      50.42637198      49.84004247
C       48.61242791      51.30586766      49.76635814
C       49.94833514      50.78064008      49.94608664
C       51.13246708      51.47056689      49.97249484
C       52.37494862      50.82791462      50.26626537
C       52.53911472      49.45643214      50.24607733
C       51.36875711      48.71764642      50.17125217
C       50.02468893      49.33836241      50.01849002
H       49.10162800      47.43006618      50.64246964
H       46.76370254      48.47401121      50.43725137
H       46.52988869      50.87911434      50.19041491
H       48.46248455      52.32589133      49.39611460
H       51.16867246      52.58348369      49.74385351
H       53.18081700      51.52338570      50.21927975
H       53.46998179      48.98093572      50.38378277
H       51.35334549      47.62816858      50.22457297
