18
Lattice="100.0 0.0 0.0 0.0 100.0 0.0 0.0 0.0 100.0" Properties=species:S:1:pos:R:3 Energy=-241646.12633903822 Energy_pyscf=-241643.4320909887 pbc="F F F" Energy_pyscf_og=-241645.860830659
C       48.96798770      48.52124346      50.03400228
C       47.72263009      49.02471325      49.97186269
C       47.58342998      50.44489221      49.85666583
C       48.71173826      51.24860937      49.80616801
C       50.06966253      50.76993792      49.97670198
C       51.30582453      51.55172628      49.73887193
C       52.54724905      50.92350486      49.90297403
C       52.54787612      49.59710567      50.22858959
C       51.44283944      48.79583725      50.32000935
C       50.13332337      49.35345912      50.06160859
H       49.05772196      47.43224793      50.06854266
H       46.82163512      48.37745174      50.11069088
H       46.57860387      50.94009576      49.70243554
H       48.73914090      52.38374887      49.81098871
H       51.28140733      52.55889745      49.39593477
H       53.45358866      51.52270655      49.70777597
H       53.51050308      49.13304848      50.20950289
H       51.75108081      47.72629053      50.58004667
