18
Lattice="100.0 0.0 0.0 0.0 100.0 0.0 0.0 0.0 100.0" Properties=species:S:1:pos:R:3 Energy=-241633.7082920915 Energy_pyscf=-241633.53693387622 pbc="F F F" Energy_pyscf_og=-241633.44628210503
C       48.85049071      48.48934965      50.38282137
C       47.61916513      49.08009983      50.25823186
C       47.45435966      50.41626173      49.91073005
C       48.58890400      51.19036505      49.76059340
C       49.93544850      50.68058893      49.79248125
C       51.08349127      51.47047324      49.92051925
C       52.31603369      50.90850729      50.25421442
C       52.48449228      49.51140467      50.31726469
C       51.40041052      48.76474354      50.14089372
C       50.05172721      49.27948792      50.05600434
H       48.99692025      47.46243185      50.59179852
H       46.74569676      48.53938405      50.31240920
H       46.49610142      50.86800572      50.19305608
H       48.65664097      52.23858795      49.46000006
H       51.19957451      52.51657499      49.77802245
H       53.21861446      51.63289794      50.20025728
H       53.48384416      48.94664854      50.40044063
H       51.35268137      47.68572955      50.16056060
