18
Lattice="100.0 0.0 0.0 0.0 100.0 0.0 0.0 0.0 100.0" Properties=species:S:1:pos:R:3 Energy=-241632.8625527089 Energy_pyscf=-241632.37678891484 pbc="F F F" Energy_pyscf_og=-241632.5996120744
C       48.84903866      48.50070566      50.13929207
C       47.56967147      49.13057996      50.04055885
C       47.52043526      50.48053675      49.86069824
C       48.73076623      51.23331028      49.68051581
C       49.97520205      50.69635333      49.86392020
C       51.11350424      51.61699671      49.87104527
C       52.31583556      51.02830473      49.99704663
C       52.48258131      49.54617276      50.26915852
C       51.34175420      48.76423992      50.11024210
C       50.03540898      49.31286071      50.01592550
H       49.00495767      47.44914403      50.37757772
H       46.72815707      48.45790537      50.36937874
H       46.58120108      50.94016383      49.77326815
H       48.53410850      52.35417337      49.62235019
H       50.73217226      52.62129474      49.57630993
H       53.17882932      51.76874337      50.11036513
H       53.45933589      49.02755615      50.19723335
H       51.58571024      47.76128345      50.22484631
