18
Lattice="100.0 0.0 0.0 0.0 100.0 0.0 0.0 0.0 100.0" Properties=species:S:1:pos:R:3 Energy=-241624.32310823392 Energy_pyscf=-241620.65701367726 pbc="F F F" Energy_pyscf_og=-241624.06330116777
C       48.86823521      48.47112092      50.09797801
C       47.62152440      49.03324565      49.86072515
C       47.44539147      50.46671392      49.81640234
C       48.56235192      51.15362381      49.77794129
C       49.82489588      50.61205858      50.10836225
C       50.93137772      51.52439914      49.95730108
C       52.16561434      50.93206776      49.90662036
C       52.42508617      49.52550635      50.00864569
C       51.27900459      48.77068816      50.24973490
C       49.97445098      49.22235733      50.28719248
H       48.82655431      47.28241437      50.12553127
H       46.90447548      48.34842260      49.63335683
H       46.59677607      51.06967988      49.46675773
H       48.66060336      52.25350002      49.55931130
H       50.81507872      52.66918355      50.08126040
H       53.13709332      51.50273816      49.65018264
H       53.43495870      49.30082223      49.80806859
H       51.34567557      47.70441132      50.49296840
