18
Lattice="100.0 0.0 0.0 0.0 100.0 0.0 0.0 0.0 100.0" Properties=species:S:1:pos:R:3 Energy=-241641.876122154 Energy_pyscf=-241642.51338486758 pbc="F F F" Energy_pyscf_og=-241641.60033411413
C       48.93045211      48.52301201      50.24746250
C       47.60791161      49.10476188      50.12597506
C       47.43039574      50.48673823      49.84050598
C       48.57779477      51.29275585      49.76129412
C       49.91523602      50.76652736      50.03155603
C       51.04074340      51.56269234      49.98149915
C       52.33133136      51.00063664      50.00865117
C       52.47264405      49.56872660      50.20148655
C       51.41137836      48.75151364      50.41534516
C       50.11075013      49.25808736      50.22729055
H       48.96809289      47.43324168      50.28357375
H       46.79888536      48.43673638      49.92533510
H       46.42068019      50.99421293      49.73982247
H       48.51328005      52.38851514      49.50674798
H       50.89238115      52.64232880      49.83089639
H       53.25290038      51.40033779      49.80091793
H       53.46985214      49.15217501      50.22176191
H       51.71502996      47.65195135      50.47122737
