18
Lattice="100.0 0.0 0.0 0.0 100.0 0.0 0.0 0.0 100.0" Properties=species:S:1:pos:R:3 Energy=-241642.1998322178 Energy_pyscf=-241641.69329357435 pbc="F F F" Energy_pyscf_og=-241641.93160944068
C       48.87094047      48.44240865      50.18238003
C       47.63377579      48.90498373      49.85295872
C       47.51832397      50.30976777      49.69920931
C       48.69154991      51.07252432      49.67871850
C       49.99788680      50.62686622      49.79947086
C       51.17594647      51.42825926      49.72597692
C       52.39909120      50.84973086      49.96415953
C       52.49037743      49.39998131      50.07875103
C       51.32577409      48.65089573      50.15950300
C       50.10515334      49.25641617      49.94723884
H       49.10384316      47.36765768      50.45185467
H       46.80823277      48.14946437      49.83162219
H       46.54937177      50.71501452      49.68244183
H       48.50256181      52.12709643      49.70234767
H       51.09986201      52.50267348      49.55629416
H       53.27381195      51.53209454      50.21806485
H       53.44321724      48.84233348      50.19125423
H       51.27761196      47.55683079      50.22757165
