18
Lattice="100.0 0.0 0.0 0.0 100.0 0.0 0.0 0.0 100.0" Properties=species:S:1:pos:R:3 Energy=-241640.9155915283 Energy_pyscf=-241639.56006870308 pbc="F F F" Energy_pyscf_og=-241640.6565881902
C       48.79749584      48.55981611      50.09815779
C       47.55968775      49.13911951      50.05495846
C       47.42739998      50.57736558      49.73802618
C       48.53351035      51.30266981      49.72426662
C       49.82909304      50.70895940      49.90926420
C       50.99330606      51.58123173      49.82300366
C       52.23864012      50.98912539      49.96546831
C       52.44768995      49.58549802      50.08238984
C       51.31555314      48.75308876      50.14853108
C       49.99329085      49.33745821      50.14543008
H       48.95393350      47.48505282      50.37529807
H       46.60962536      48.67342056      50.23785208
H       46.42056130      51.14168375      49.67349446
H       48.51030966      52.41100105      49.42238687
H       50.91078220      52.60731814      49.46897125
H       53.03594564      51.68291977      49.65828507
H       53.49442588      49.04180363      50.20147694
H       51.47905613      47.74794022      50.61953013
