18
Lattice="100.0 0.0 0.0 0.0 100.0 0.0 0.0 0.0 100.0" Properties=species:S:1:pos:R:3 Energy=-241630.58504730745 Energy_pyscf=-241630.47609742323 pbc="F F F" Energy_pyscf_og=-241630.32511944414
C       48.89831049      48.49179505      49.99732384
C       47.63325660      49.11441962      49.98065627
C       47.42554404      50.50707279      49.75235994
C       48.52990295      51.33320923      49.65925464
C       49.84153349      50.69864157      49.77948983
C       50.91570110      51.46758618      49.64453675
C       52.20549540      50.94916775      49.94838561
C       52.44274429      49.63545072      50.18849244
C       51.37381987      48.79155388      50.09154155
C       50.01304116      49.32840784      49.94560245
H       48.95413081      47.44211276      50.25096115
H       46.62653194      48.53556712      49.98986053
H       46.49544166      51.01713995      49.79018034
H       48.48622326      52.41469797      49.56325660
H       50.81912249      52.59660334      49.65873035
H       53.09562341      51.53574928      50.05419517
H       53.37359605      49.26816089      50.43776128
H       51.51307108      47.61260419      49.83925229
