18
Lattice="100.0 0.0 0.0 0.0 100.0 0.0 0.0 0.0 100.0" Properties=species:S:1:pos:R:3 Energy=-241632.99241125703 Energy_pyscf=-241632.0502912444 pbc="F F F" Energy_pyscf_og=-241632.72734999555
C       48.86448928      48.61178168      50.30904629
C       47.68949205      49.18179750      49.92066266
C       47.48777382      50.55547094      49.83302195
C       48.58841524      51.42761171      49.84998941
C       49.88004981      50.85462335      50.08860890
C       51.03284648      51.61881250      50.00562653
C       52.31291048      51.05581582      50.07367283
C       52.49618700      49.67306438      50.22159756
C       51.29095486      48.86257639      50.33876091
C       50.06982345      49.46493065      50.18126219
H       48.73502934      47.51223693      50.57436480
H       46.84278019      48.57292223      49.86882752
H       46.51626020      51.07423721      49.83782394
H       48.61937100      52.55250003      49.52030945
H       51.07739111      52.66003921      49.54964744
H       53.07365986      51.81891543      49.96748027
H       53.52723876      49.34416748      50.20268056
H       51.37235876      47.79641774      50.34616609
