18
Lattice="100.0 0.0 0.0 0.0 100.0 0.0 0.0 0.0 100.0" Properties=species:S:1:pos:R:3 Energy=-241638.7140893816 Energy_pyscf=-241638.18139657893 pbc="F F F" Energy_pyscf_og=-241638.4430188372
C       48.85196951      48.47779854      50.26850994
C       47.59581912      49.09212780      50.09140392
C       47.47204440      50.50400482      49.86909725
C       48.63164827      51.24273433      49.86185048
C       49.90743714      50.67974024      50.07669151
C       51.01006238      51.55436230      49.96216173
C       52.25521043      50.99617642      49.97687396
C       52.47537219      49.62396600      50.33391512
C       51.41785555      48.79157691      50.33942282
C       50.08288012      49.21848888      50.16263855
H       48.98134529      47.41450258      50.23335712
H       46.74791368      48.48030277      49.96612226
H       46.50269407      51.03563505      49.68250270
H       48.56179725      52.35494424      49.50550342
H       50.95649326      52.56317463      49.83205541
H       53.22956003      51.52145898      49.73770268
H       53.58125439      49.18821802      50.22739461
H       51.63183940      47.64242867      50.50174686
