18
Lattice="100.0 0.0 0.0 0.0 100.0 0.0 0.0 0.0 100.0" Properties=species:S:1:pos:R:3 Energy=-241646.14431274126 Energy_pyscf=-241644.84712952242 pbc="F F F" Energy_pyscf_og=-241645.87495336565
C       48.90923126      48.52110083      50.23080720
C       47.62218562      49.12977406      50.12666033
C       47.49769691      50.53355237      49.84536945
C       48.66262903      51.27621708      49.83286697
C       49.91293101      50.75878064      50.00765257
C       51.02455964      51.56736501      49.91741955
C       52.28959005      50.95720053      49.98760363
C       52.44534090      49.56725228      50.31242136
C       51.39969295      48.73865485      50.36021564
C       50.11183376      49.27329754      50.16431962
H       48.99867336      47.36542262      50.29471036
H       46.85219343      48.41830360      49.97997897
H       46.47716647      50.98496132      49.71310374
H       48.59115969      52.38594325      49.54508096
H       50.83741811      52.66192243      49.81705494
H       53.20460133      51.44659724      49.80925677
H       53.50053088      49.21998157      50.21706252
H       51.56258455      47.65742153      50.48453257
