18
Lattice="100.0 0.0 0.0 0.0 100.0 0.0 0.0 0.0 100.0" Properties=species:S:1:pos:R:3 Energy=-241639.91274884995 Energy_pyscf=-241639.58050981862 pbc="F F F" Energy_pyscf_og=-241639.6512718525
C       48.85039830      48.43375823      50.13757708
C       47.62020082      49.03444254      49.85682503
C       47.44097904      50.41469786      49.74272203
C       48.62094191      51.23987898      49.73460800
C       49.91562997      50.63535619      50.07332381
C       51.02809989      51.48676692      50.01561584
C       52.23033829      50.96054617      49.84442553
C       52.35365567      49.51796541      50.01895870
C       51.27857761      48.73391177      50.28443217
C       49.97508162      49.26564629      50.24905839
H       48.88299367      47.38179215      50.14600667
H       46.82420543      48.29555791      49.60595690
H       46.56376966      51.02732410      49.52068776
H       48.55657084      52.31112097      49.58214966
H       50.84327092      52.62914374      50.04745315
H       53.06225722      51.62940537      49.71660516
H       53.38210852      49.18303271      49.80171276
H       51.38318707      47.64585224      50.51447013
