18
Lattice="100.0 0.0 0.0 0.0 100.0 0.0 0.0 0.0 100.0" Properties=species:S:1:pos:R:3 Energy=-241634.18180551662 Energy_pyscf=-241633.26092082867 pbc="F F F" Energy_pyscf_og=-241633.9145615753
C       48.92327201      48.57582534      50.31670173
C       47.70166423      49.19029023      50.01493240
C       47.61343345      50.48436877      49.71533116
C       48.68232284      51.28474519      49.83141602
C       49.90858635      50.69252288      50.13781774
C       51.07352753      51.50312381      50.05919140
C       52.33184314      50.96709224      49.93044254
C       52.55527223      49.60361964      50.11928787
C       51.36941704      48.73813360      50.31932276
C       50.10060045      49.31125560      50.33543559
H       48.94855758      47.48195540      50.25594434
H       46.70709971      48.70259934      49.82027413
H       46.68696601      50.99591648      49.59942639
H       48.53996374      52.40951058      49.73141240
H       50.76987913      52.54422798      50.01417766
H       53.14324232      51.66370310      49.81254937
H       53.49030051      49.08062269      49.96020353
H       51.42376978      47.67372838      50.22184057
