18
Lattice="100.0 0.0 0.0 0.0 100.0 0.0 0.0 0.0 100.0" Properties=species:S:1:pos:R:3 Energy=-241642.4580645758 Energy_pyscf=-241640.30559206905 pbc="F F F" Energy_pyscf_og=-241642.19156751584
C       49.00216058      48.48520473      49.95035128
C       47.75098090      49.05008998      50.01592185
C       47.63051626      50.51154682      49.85201058
C       48.76146507      51.33985770      49.84526313
C       50.07446751      50.84270878      49.95388183
C       51.26463353      51.54535476      49.74114235
C       52.50584743      50.91253118      49.86597543
C       52.52897731      49.54584285      50.21637102
C       51.42814416      48.83341819      50.39840911
C       50.15484947      49.37136687      49.99692365
H       49.16477378      47.41620126      50.10188188
H       46.88013056      48.41364263      50.17429729
H       46.60669590      50.81934589      49.66552487
H       48.74536445      52.43952247      49.79453679
H       51.19102790      52.53701187      49.45324877
H       53.40763730      51.54544394      49.72968134
H       53.54671439      48.99850158      50.21051854
H       51.58940662      47.74348026      50.54577731
