18
Lattice="100.0 0.0 0.0 0.0 100.0 0.0 0.0 0.0 100.0" Properties=species:S:1:pos:R:3 Energy=-241646.69665263267 Energy_pyscf=-241647.12510073947 pbc="F F F" Energy_pyscf_og=-241646.42658946247
C       48.88069048      48.39467909      50.12693209
C       47.58941815      48.86569940      49.86372042
C       47.56000483      50.25277661      49.68773537
C       48.66499755      51.07946996      49.69748835
C       49.97441656      50.60070021      49.82215762
C       51.13214654      51.41764599      49.75757142
C       52.39428744      50.84574517      49.91749045
C       52.48990575      49.44237656      50.15441910
C       51.36136292      48.63733123      50.09859425
C       50.07353753      49.15838400      49.86857605
H       49.05982737      47.36524812      50.40032217
H       46.72862531      48.27279059      49.91887805
H       46.60413402      50.71933990      49.65461912
H       48.51043599      52.15343418      49.64655731
H       51.06275969      52.57316780      49.63147115
H       53.26903797      51.48130835      50.15386880
H       53.45532664      48.85682173      50.25149403
H       51.40601715      47.56532172      50.23160304
