18
Lattice="100.0 0.0 0.0 0.0 100.0 0.0 0.0 0.0 100.0" Properties=species:S:1:pos:R:3 Energy=-241644.47376034522 Energy_pyscf=-241644.55058965037 pbc="F F F" Energy_pyscf_og=-241644.19799163743
C       48.85210307      48.52801458      50.09870215
C       47.55391411      49.11433382      50.14609434
C       47.49246156      50.48796272      49.80771850
C       48.65952843      51.20830601      49.70337396
C       49.98677534      50.67532595      49.80930484
C       51.07099962      51.55345657      49.83922328
C       52.37972913      51.04953912      50.13727439
C       52.51926760      49.63494872      50.17558267
C       51.41399782      48.78284840      50.07486628
C       50.04802622      49.27067568      49.94866502
H       49.01838786      47.41858670      50.41495623
H       46.65855119      48.54481020      50.40568465
H       46.55807617      50.92848105      49.78729508
H       48.57732125      52.30494099      49.57080552
H       50.83076865      52.60666536      49.63076476
H       53.11705006      51.80366730      50.15637868
H       53.56251584      49.13668460      50.20898990
H       51.46818409      47.63180634      50.19422999
