18
Lattice="100.0 0.0 0.0 0.0 100.0 0.0 0.0 0.0 100.0" Properties=species:S:1:pos:R:3 Energy=-241635.0132819026 Energy_pyscf=-241634.53648622334 pbc="F F F" Energy_pyscf_og=-241634.7483509039
C       48.79069478      48.49923905      50.10662954
C       47.62931787      49.06326805      49.89904376
C       47.41224002      50.45481083      49.68441356
C       48.59830582      51.19930836      49.81992954
C       49.90487698      50.65845326      50.11917069
C       51.03612665      51.50762803      50.01069713
C       52.26297857      50.89799250      49.93641321
C       52.41660081      49.55719704      49.99145973
C       51.34759143      48.72749467      50.28764511
C       49.97436334      49.21094270      50.30597347
H       48.86220476      47.42680672      50.12887972
H       46.77876460      48.39277057      49.59997272
H       46.50000472      50.91948875      49.49864382
H       48.48525528      52.30040583      49.51667027
H       50.84069541      52.57680192      50.04357681
H       53.15793377      51.54294220      49.65018508
H       53.42478953      49.30350115      49.83381028
H       51.41080477      47.58057190      50.46086605
