18
Lattice="100.0 0.0 0.0 0.0 100.0 0.0 0.0 0.0 100.0" Properties=species:S:1:pos:R:3 Energy=-241634.1437554888 Energy_pyscf=-241631.8913212159 pbc="F F F" Energy_pyscf_og=-241633.87626969494
C       49.01752763      48.59015292      50.02000670
C       47.72687871      49.11532187      50.04694790
C       47.61547540      50.49538719      49.79307319
C       48.78065696      51.27145609      49.76362419
C       50.10883710      50.76175306      49.91150941
C       51.30384863      51.48944603      49.63835283
C       52.53359844      50.87768567      49.82684833
C       52.58215466      49.52935071      50.19229926
C       51.42398341      48.83333365      50.46099838
C       50.19875218      49.39408175      50.06281907
H       49.18709572      47.51484599      50.00409311
H       46.85319644      48.40115113      50.21812619
H       46.52282792      50.82888278      49.57652332
H       48.80054613      52.32172042      49.95881972
H       51.16116861      52.53258251      49.51369189
H       53.33884557      51.64453531      49.74537162
H       53.52624086      49.02660155      50.18625818
H       51.55639160      47.73195433      50.61088327
