18
Lattice="100.0 0.0 0.0 0.0 100.0 0.0 0.0 0.0 100.0" Properties=species:S:1:pos:R:3 Energy=-241631.93729522408 Energy_pyscf=-241632.86855195512 pbc="F F F" Energy_pyscf_og=-241631.67975478
C       48.90861802      48.55892614      50.26446445
C       47.65969967      49.15892620      50.03415361
C       47.57003272      50.54071648      49.70753093
C       48.66144904      51.33406050      49.71972423
C       49.89216947      50.73144621      50.12030665
C       51.09773490      51.56889500      50.02564397
C       52.34221984      50.97149503      49.88551474
C       52.43501664      49.58559775      50.10565354
C       51.40775385      48.69871333      50.30166963
C       50.09499114      49.33518164      50.40658786
H       49.07426861      47.52558183      50.29179160
H       46.70885140      48.63464285      49.86985322
H       46.47185500      50.91656427      49.56428086
H       48.72323227      52.41079797      49.78846510
H       50.87981772      52.58106344      50.03915319
H       53.18529691      51.67557083      49.93157581
H       53.38423238      49.12316695      49.92463021
H       51.45428772      47.58296713      50.26359065
