18
Lattice="100.0 0.0 0.0 0.0 100.0 0.0 0.0 0.0 100.0" Properties=species:S:1:pos:R:3 Energy=-241644.46091749662 Energy_pyscf=-241644.3357031871 pbc="F F F" Energy_pyscf_og=-241644.18966676565
C       48.74608536      48.34661543      50.23643462
C       47.56293072      48.97537810      50.01681341
C       47.47107714      50.37128585      49.72612715
C       48.54831935      51.17601252      49.61190078
C       49.83325219      50.64263007      49.99965171
C       51.05758653      51.42594971      49.96807558
C       52.30859502      50.94024633      50.00623446
C       52.48861819      49.50835210      50.04199079
C       51.35368288      48.69258839      50.21713958
C       49.98259881      49.17073874      50.22723656
H       48.84255897      47.30424351      50.51343806
H       46.63524684      48.45649209      50.19592364
H       46.47299118      50.80039705      49.49553246
H       48.53235943      52.25481109      49.44110434
H       51.00633382      52.58984842      49.80255151
H       53.11050997      51.60697719      50.00572550
H       53.50838764      49.06765858      49.98044661
H       51.37805958      47.51541513      50.32877773
