18
Lattice="100.0 0.0 0.0 0.0 100.0 0.0 0.0 0.0 100.0" Properties=species:S:1:pos:R:3 Energy=-241650.1420704237 Energy_pyscf=-241649.09720798302 pbc="F F F" Energy_pyscf_og=-241649.8742553135
C       48.89154953      48.52851332      50.17553487
C       47.61832896      49.09312005      50.04535351
C       47.45336192      50.52365488      49.87621787
C       48.59836931      51.25251734      49.77741177
C       49.88827393      50.73686040      50.07238998
C       51.02979694      51.55458673      50.02061704
C       52.26655090      50.95832280      49.94319665
C       52.51930249      49.56528241      50.20233963
C       51.37974733      48.77134502      50.36257643
C       50.05668690      49.30517117      50.22577927
H       49.08520154      47.44127199      50.28902800
H       46.76866134      48.38808317      50.01733695
H       46.45703019      50.99449636      49.73586179
H       48.57014243      52.38516311      49.48127254
H       50.97425801      52.62221266      49.87039635
H       53.20364057      51.44510244      49.77256679
H       53.46684619      49.16804393      50.28354032
H       51.60900522      47.69590648      50.50268174
