18
Lattice="100.0 0.0 0.0 0.0 100.0 0.0 0.0 0.0 100.0" Properties=species:S:1:pos:R:3 Energy=-241621.00016171296 Energy_pyscf=-241618.508801635 pbc="F F F" Energy_pyscf_og=-241620.75012521973
C       48.94980999      48.52696788      50.33480748
C       47.68746458      49.02780008      50.12336120
C       47.49855714      50.46702348      49.91782336
C       48.56445204      51.30017765      49.75083619
C       49.84014797      50.81826634      49.98753718
C       51.09013287      51.40151591      49.95998854
C       52.31080952      50.83962228      50.25166734
C       52.51358630      49.48897104      50.24011954
C       51.34783224      48.74527999      50.22296918
C       50.08997895      49.28501330      50.05426424
H       49.06994920      47.45714089      50.56119095
H       46.80911671      48.37723429      50.35263356
H       46.60614774      50.95242810      50.30953912
H       48.63286633      52.26980095      49.25531491
H       51.06831316      52.48434551      49.72823033
H       53.18773392      51.52848940      50.27021832
H       53.49735635      49.01519882      50.34514323
H       51.18560746      47.69702786      50.22846197
