18
Lattice="100.0 0.0 0.0 0.0 100.0 0.0 0.0 0.0 100.0" Properties=species:S:1:pos:R:3 Energy=-241632.71006546883 Energy_pyscf=-241631.70890334048 pbc="F F F" Energy_pyscf_og=-241632.45030737927
C       48.86505402      48.40431629      50.26666020
C       47.60980341      48.90413055      49.81190900
C       47.55087650      50.29753632      49.75042008
C       48.64074044      51.08498285      49.58324090
C       49.95760331      50.64325039      49.78650517
C       51.16098461      51.41409310      49.78576704
C       52.42167753      50.82922491      49.94741055
C       52.44833647      49.40825115      50.10074927
C       51.34448008      48.61194743      50.06521638
C       50.05997866      49.22074154      49.94724533
H       49.14148952      47.39650677      50.46174107
H       46.85352423      48.23035356      49.86326898
H       46.55135127      50.72769522      49.65731245
H       48.43910501      52.12977388      49.70758070
H       51.14602713      52.49775034      49.59972730
H       53.26083702      51.54562696      50.21055732
H       53.47552080      48.86565062      50.20128456
H       51.33446603      47.48507577      50.20963930
