18
Lattice="100.0 0.0 0.0 0.0 100.0 0.0 0.0 0.0 100.0" Properties=species:S:1:pos:R:3 Energy=-241641.87270713574 Energy_pyscf=-241641.05356736126 pbc="F F F" Energy_pyscf_og=-241641.6046051483
C       48.88659225      48.52740136      50.18419444
C       47.61856815      49.08679784      50.08203292
C       47.53056117      50.53416559      49.86099225
C       48.64498290      51.32983291      49.81404633
C       49.84958365      50.73097817      50.08982620
C       51.02690904      51.52896456      49.96678403
C       52.31027126      50.98654847      49.99969811
C       52.48345746      49.60566848      50.23967166
C       51.38292148      48.78720312      50.40615635
C       50.10609847      49.28692756      50.20065598
H       48.96536086      47.40830377      50.24937940
H       46.79210173      48.45572883      49.98798225
H       46.47690172      50.85959359      49.72743738
H       48.56952891      52.34835392      49.45583730
H       51.01713765      52.59620167      49.88325765
H       53.21970697      51.47973384      49.71913834
H       53.45835119      49.26219071      50.25564080
H       51.57418956      47.59150665      50.48151944
