18
Lattice="100.0 0.0 0.0 0.0 100.0 0.0 0.0 0.0 100.0" Properties=species:S:1:pos:R:3 Energy=-241641.55058865878 Energy_pyscf=-241640.28853204902 pbc="F F F" Energy_pyscf_og=-241641.29104293828
C       48.92628311      48.52541119      50.18321447
C       47.61815686      49.08891686      50.17812350
C       47.52819444      50.52201203      49.88387297
C       48.62319324      51.33706800      49.77183327
C       49.92504623      50.71261397      49.96035928
C       51.02941582      51.55369506      49.93755334
C       52.26396130      50.91354188      50.01629386
C       52.48472544      49.58860799      50.25539716
C       51.36397537      48.70755089      50.33704240
C       50.10104935      49.34163056      50.16316612
H       48.98866290      47.44974769      50.32174397
H       46.82548013      48.32814619      49.93779130
H       46.55608584      51.04759021      49.71443626
H       48.52099739      52.42772903      49.52745890
H       50.79208431      52.62961582      49.83719879
H       53.15971962      51.44121543      49.83946799
H       53.53905568      49.14251506      50.22488873
H       51.62498745      47.68412640      50.51239820
