18
Lattice="100.0 0.0 0.0 0.0 100.0 0.0 0.0 0.0 100.0" Properties=species:S:1:pos:R:3 Energy=-241639.0102651297 Energy_pyscf=-241639.77453767392 pbc="F F F" Energy_pyscf_og=-241638.74310258316
C       48.87230750      48.51385822      50.19668816
C       47.61115015      49.12169223      50.08878698
C       47.45438929      50.55134075      49.82205612
C       48.60736673      51.30241001      49.84149535
C       49.90096765      50.75351787      50.11036664
C       51.09259415      51.60403204      50.02907816
C       52.34182979      50.99456934      50.01981403
C       52.45006467      49.56286494      50.31897488
C       51.35243647      48.69047174      50.44084883
C       50.01891665      49.33541676      50.27716795
H       49.01089619      47.44778562      50.27862400
H       46.81417406      48.37917881      49.97788832
H       46.43510846      50.89295064      49.65395169
H       48.52579668      52.38147769      49.55212352
H       50.86881117      52.58059498      49.72163911
H       53.36330722      51.36641050      49.77626145
H       53.50556748      49.23730142      50.10403579
H       51.65546960      47.69922019      50.43341144
