18
Lattice="100.0 0.0 0.0 0.0 100.0 0.0 0.0 0.0 100.0" Properties=species:S:1:pos:R:3 Energy=-241641.89088936208 Energy_pyscf=-241641.06694159974 pbc="F F F" Energy_pyscf_og=-241641.62900260207
C       48.83019738      48.45258816      50.19421500
C       47.57583037      49.00529816      50.03548641
C       47.49413655      50.33747016      49.69098078
C       48.57483718      51.13911012      49.63268854
C       49.82197144      50.61154163      50.01964358
C       51.02309470      51.48345518      49.95349494
C       52.28775162      50.91985729      50.02762255
C       52.37178579      49.46811973      50.04502747
C       51.31765699      48.60768124      50.23307890
C       49.97606239      49.17697688      50.20988084
H       48.85575494      47.39029176      50.54590525
H       46.63517853      48.38304451      50.25886685
H       46.58319803      50.78679404      49.47010756
H       48.64194966      52.23090601      49.45648083
H       50.96031895      52.54624735      49.84200062
H       53.10059678      51.70121562      50.03240929
H       53.36301137      49.03665395      49.91946844
H       51.38083594      47.56550734      50.32119101
