18
Lattice="100.0 0.0 0.0 0.0 100.0 0.0 0.0 0.0 100.0" Properties=species:S:1:pos:R:3 Energy=-241640.52097509967 Energy_pyscf=-241640.79825642 pbc="F F F" Energy_pyscf_og=-241640.25522134444
C       48.86859805      48.38313628      50.14899661
C       47.62874525      48.96689686      49.99342973
C       47.42107016      50.34536165      49.62405197
C       48.58254059      51.10815269      49.65883432
C       49.86333975      50.57324353      49.95524952
C       50.99327492      51.50531171      49.96796861
C       52.26422924      50.95440279      50.07981738
C       52.41177441      49.49985740      50.06692445
C       51.34370924      48.62597043      50.20223824
C       50.01452273      49.18128927      50.16592256
H       48.86866593      47.36456198      50.59499635
H       46.66623309      48.46404473      50.29120633
H       46.43896985      50.85289639      49.51199250
H       48.59158618      52.28537910      49.48248859
H       50.97819900      52.61828231      49.80233887
H       53.05751315      51.63740903      50.00533607
H       53.43208116      48.91539465      49.95996024
H       51.36846663      47.55012222      50.32141421
