18
Lattice="100.0 0.0 0.0 0.0 100.0 0.0 0.0 0.0 100.0" Properties=species:S:1:pos:R:3 Energy=-241621.00016171296 Energy_pyscf=-241618.54693451602 pbc="F F F" Energy_pyscf_og=-241620.75012521964
C       48.95035167      48.52667253      50.33506810
C       47.68769617      49.02761863      50.12499562
C       47.49804814      50.46652060      49.91678136
C       48.56423300      51.29937433      49.74799377
C       49.84010895      50.81800222      49.98583452
C       51.08971620      51.40207688      49.96143890
C       52.31041401      50.84002719      50.25148574
C       52.51376563      49.48932004      50.23686262
C       51.34814169      48.74600414      50.22355314
C       50.09024288      49.28497751      50.05385340
H       49.07127509      47.45677219      50.56127108
H       46.80998595      48.37827044      50.35797346
H       46.60565318      50.95362216      50.30748602
H       48.63281941      52.26852325      49.25156581
H       51.06754311      52.48451156      49.72716463
H       53.18652558      51.52999572      50.27203526
H       53.49824613      49.01731330      50.34152154
H       51.18679883      47.69779035      50.22915100
