18
Lattice="100.0 0.0 0.0 0.0 100.0 0.0 0.0 0.0 100.0" Properties=species:S:1:pos:R:3 Energy=-241637.54524585648 Energy_pyscf=-241639.4332375922 pbc="F F F" Energy_pyscf_og=-241637.2754433114
C       48.91131361      48.50369126      50.01032683
C       47.69970839      49.10075650      50.03702193
C       47.58631011      50.52730246      49.94029728
C       48.73140877      51.22305235      49.63173043
C       50.01533917      50.70986387      49.75231048
C       51.20338757      51.55146822      49.79612791
C       52.40493691      50.98079439      50.12899382
C       52.50929787      49.57103707      50.15240284
C       51.48704019      48.63325845      50.13699065
C       50.13580027      49.24053098      50.03286020
H       48.98166959      47.41974617      50.32165507
H       46.82699792      48.63891500      50.54484695
H       46.63824987      51.04738845      49.98739251
H       48.75440704      52.34936870      49.50837256
H       51.06080685      52.57702930      49.43313533
H       53.40539306      51.58558608      50.24487584
H       53.48866425      49.11154497      50.23571248
H       51.67503547      47.51563719      50.05403942
