18
Lattice="100.0 0.0 0.0 0.0 100.0 0.0 0.0 0.0 100.0" Properties=species:S:1:pos:R:3 Energy=-241644.19842862952 Energy_pyscf=-241643.16954786464 pbc="F F F" Energy_pyscf_og=-241643.9332479347
C       48.88589341      48.50694809      50.14876729
C       47.58352633      49.08308541      50.10036029
C       47.54198882      50.56100319      49.89311900
C       48.66785505      51.27078542      49.79829257
C       49.94653616      50.71802003      50.08834436
C       51.03307868      51.55186055      49.94829965
C       52.25726222      50.93635191      50.03187683
C       52.46353468      49.54817815      50.19210426
C       51.38684865      48.68610091      50.35793273
C       50.05656084      49.27288216      50.22021170
H       49.02329722      47.42845184      50.31722653
H       46.80018582      48.41718249      49.95273583
H       46.54399356      50.94955379      49.72698951
H       48.58383094      52.39046300      49.49714754
H       50.89211563      52.70156360      49.82004657
H       53.12340709      51.52357114      49.75085357
H       53.49898059      49.20120137      50.25301954
H       51.60228504      47.61462755      50.52488993
