18
Lattice="100.0 0.0 0.0 0.0 100.0 0.0 0.0 0.0 100.0" Properties=species:S:1:pos:R:3 Energy=-241626.42630550195 Energy_pyscf=-241624.31473950593 pbc="F F F" Energy_pyscf_og=-241626.16542159492
C       48.79897768      48.48704032      50.11435654
C       47.54988396      49.09505933      49.81365906
C       47.38123673      50.43243080      49.65684147
C       48.53474517      51.15966487      49.84718178
C       49.81635823      50.64198668      50.04791167
C       51.00416045      51.51006416      49.90765136
C       52.13442809      50.83823428      49.92962302
C       52.40870185      49.44441159      50.06531943
C       51.31028708      48.71910042      50.35883016
C       49.97380821      49.25532125      50.18057482
H       48.74500976      47.38938922      50.28231545
H       46.62020509      48.61084104      49.59009910
H       46.51126718      50.99201160      49.60220499
H       48.52100505      52.32008638      49.50293794
H       50.87418263      52.60664634      49.86971810
H       52.93516427      51.60081855      49.70369216
H       53.41639870      49.05109454      49.75792243
H       51.24723001      47.59739237      50.56703808
