18
Lattice="100.0 0.0 0.0 0.0 100.0 0.0 0.0 0.0 100.0" Properties=species:S:1:pos:R:3 Energy=-241636.89763005706 Energy_pyscf=-241637.47793575743 pbc="F F F" Energy_pyscf_og=-241636.6348037516
C       48.78870830      48.49323518      49.86462444
C       47.57814915      49.11129285      50.08556983
C       47.53951302      50.57054534      49.82028449
C       48.60774727      51.24758890      49.48631730
C       50.00518051      50.69000068      49.57364016
C       51.09702520      51.51079858      49.70375612
C       52.34688058      50.97012085      49.93983534
C       52.43576408      49.52064384      50.16673404
C       51.31733331      48.74604126      50.06879073
C       50.04091010      49.25333621      49.76863895
H       48.71174768      47.39296303      49.83220186
H       46.70734020      48.47893222      50.37864609
H       46.59496677      51.09403208      49.82690905
H       48.36339173      52.33614052      49.31793017
H       50.99305734      52.64146849      49.43738847
H       53.19797905      51.65195535      50.06174055
H       53.38230055      49.07321620      50.39923329
H       51.56228710      47.74964555      50.35195394
