18
Lattice="100.0 0.0 0.0 0.0 100.0 0.0 0.0 0.0 100.0" Properties=species:S:1:pos:R:3 Energy=-241626.6415596012 Energy_pyscf=-241625.22192679506 pbc="F F F" Energy_pyscf_og=-241626.38029798734
C       48.89439080      48.49697358      50.08661927
C       47.61261000      49.00277130      49.83849537
C       47.42149992      50.45420024      49.74965177
C       48.51232494      51.20760955      49.78282903
C       49.78816959      50.65610064      50.03905074
C       50.92115883      51.51863754      49.93959436
C       52.14645098      50.89913228      49.88588571
C       52.39185165      49.48896043      49.95032536
C       51.31776149      48.70822683      50.32317883
C       50.08101022      49.30948556      50.03708322
H       48.97482371      47.32215497      50.19114490
H       46.71202590      48.42346917      49.70869369
H       46.53768045      51.03146019      49.57064245
H       48.55924293      52.26532140      49.44155126
H       50.84516103      52.66698663      50.18981759
H       53.09210760      51.47373151      49.78214358
H       53.55420762      49.22932386      49.84850637
H       51.40617812      47.65604547      50.54934650
