18
Lattice="100.0 0.0 0.0 0.0 100.0 0.0 0.0 0.0 100.0" Properties=species:S:1:pos:R:3 Energy=-241646.26306293096 Energy_pyscf=-241644.5093167544 pbc="F F F" Energy_pyscf_og=-241645.99230380537
C       48.87805887      48.45709894      50.28595667
C       47.62992963      49.07882595      50.18223145
C       47.47136142      50.45343326      49.91629385
C       48.60005141      51.25561467      49.76276781
C       49.96202344      50.72333585      49.82856572
C       51.15293639      51.50963892      49.91862223
C       52.35752603      50.91577435      50.25030230
C       52.49054675      49.45906728      50.25082523
C       51.38580594      48.70716647      50.24165588
C       50.09839747      49.29170502      50.05252978
H       48.86642974      47.47091694      50.64230208
H       46.72545570      48.43214625      50.43484315
H       46.48904361      50.85933444      50.12538110
H       48.48265366      52.33223993      49.43640571
H       51.15703659      52.54836766      49.81191510
H       53.22483561      51.53542560      50.20236730
H       53.48345165      48.99273196      50.37306977
H       51.51646506      47.65664381      50.18060896
