18
Lattice="100.0 0.0 0.0 0.0 100.0 0.0 0.0 0.0 100.0" Properties=species:S:1:pos:R:3 Energy=-241641.4215392496 Energy_pyscf=-241641.07608382046 pbc="F F F" Energy_pyscf_og=-241641.1572180297
C       48.89528372      48.52727783      50.00786422
C       47.58916114      49.12354167      50.04929668
C       47.48145854      50.52687415      49.77812919
C       48.58866442      51.24014794      49.65308944
C       49.85433451      50.73970743      49.81198241
C       51.07068353      51.47949011      49.75173268
C       52.29553308      50.89809237      49.87059539
C       52.47653283      49.54673330      50.15927563
C       51.33814836      48.69776360      50.24723518
C       50.05528614      49.26077749      50.05502960
H       49.02356035      47.45540196      50.13089153
H       46.58609872      48.67238083      50.11094145
H       46.42927289      50.83264886      49.91647805
H       48.48708376      52.31953377      49.34477837
H       51.08644149      52.54508618      49.68500330
H       53.24653429      51.51817163      49.84259320
H       53.45582170      49.17851191      50.49041328
H       51.39689761      47.67968312      50.64401870
