18
Lattice="100.0 0.0 0.0 0.0 100.0 0.0 0.0 0.0 100.0" Properties=species:S:1:pos:R:3 Energy=-241627.58230093124 Energy_pyscf=-241627.26475888645 pbc="F F F" Energy_pyscf_og=-241627.3201369604
C       48.95993825      48.48058092      50.10862521
C       47.74589599      49.13398943      50.07588276
C       47.65470119      50.49748024      49.90598144
C       48.81423233      51.26661028      49.63261881
C       50.07536705      50.67235070      49.81543245
C       51.16549225      51.49038215      49.78508921
C       52.35481420      50.95368422      50.03592977
C       52.49754722      49.51010029      50.15879202
C       51.42230512      48.66091876      50.17041351
C       50.17843980      49.24290989      49.92804323
H       49.04319398      47.48369016      50.23311902
H       46.83168343      48.69355385      50.59008690
H       46.72402623      50.96297232      49.91967708
H       48.71413570      52.37322748      49.52463518
H       51.15021218      52.55336754      49.50922471
H       53.26906659      51.62925313      50.24878563
H       53.38614956      49.13277676      50.21590029
H       51.57868569      47.56022642      50.08738173
