18
Lattice="100.0 0.0 0.0 0.0 100.0 0.0 0.0 0.0 100.0" Properties=species:S:1:pos:R:3 Energy=-241638.33124873048 Energy_pyscf=-241638.6862154838 pbc="F F F" Energy_pyscf_og=-241638.0687577966
C       48.95725918      48.49401054      50.03566397
C       47.75027163      49.10608835      49.98350628
C       47.64701203      50.49676976      49.83713632
C       48.80448061      51.31310391      49.84194490
C       50.08071374      50.75902993      49.97230578
C       51.23595445      51.55709505      49.71969411
C       52.44992821      50.95090558      49.92831172
C       52.60610777      49.58286500      50.28159234
C       51.48674228      48.78380094      50.31742697
C       50.19683417      49.26313957      49.97817664
H       49.15742634      47.41257198      50.10906167
H       46.80268192      48.46865475      50.22955255
H       46.60505942      50.80684983      49.61757513
H       48.86154867      52.36000804      49.72861507
H       51.15738133      52.62625291      49.48587613
H       53.35108675      51.54701378      49.78540961
H       53.50371071      49.06903639      50.08070952
H       51.60253800      47.72112356      50.57381597
