18
Lattice="100.0 0.0 0.0 0.0 100.0 0.0 0.0 0.0 100.0" Properties=species:S:1:pos:R:3 Energy=-241644.82704986777 Energy_pyscf=-241644.96853002266 pbc="F F F" Energy_pyscf_og=-241644.56058969692
C       48.86216515      48.57790908      49.97753230
C       47.57564934      49.16325869      49.83256705
C       47.55124374      50.59886537      49.69883518
C       48.62940424      51.39743066      49.67652550
C       49.95385186      50.76964168      49.80420461
C       51.13063283      51.53709569      49.75015621
C       52.38090018      51.05358831      49.87696809
C       52.51613792      49.63736379      50.09775524
C       51.33706941      48.86242612      50.12838979
C       50.04067316      49.34060505      49.98180753
H       49.00332278      47.49920396      50.01576990
H       46.68949303      48.53556234      49.68996747
H       46.49056623      50.87104889      49.67892481
H       48.48360556      52.44489101      49.57688541
H       51.11235817      52.54036022      49.59279374
H       53.28148935      51.69708336      49.81857854
H       53.52091188      49.22223463      50.12113025
H       51.58871476      47.77942894      50.40324270
