18
Lattice="100.0 0.0 0.0 0.0 100.0 0.0 0.0 0.0 100.0" Properties=species:S:1:pos:R:3 Energy=-241633.77135927984 Energy_pyscf=-241632.76469135005 pbc="F F F" Energy_pyscf_og=-241633.4923922476
C       48.81542351      48.38785392      50.12960630
C       47.59560794      49.05084325      49.83132216
C       47.42847780      50.45267804      49.73468974
C       48.52286650      51.21654486      49.82768587
C       49.79206035      50.68323520      49.94878994
C       50.97685488      51.52199832      49.94535547
C       52.30253829      50.96652454      49.95592400
C       52.40267698      49.52334728      50.02161615
C       51.35959432      48.69241113      50.27547093
C       50.03911450      49.18396521      50.10038414
H       48.81264476      47.20858403      50.23084009
H       46.74866516      48.41048117      49.66210330
H       46.55221062      51.08733197      49.54564512
H       48.42461317      52.25444136      49.55238122
H       50.92875089      52.75328572      50.06993292
H       53.16667012      51.55371062      49.74371290
H       53.43884413      49.22596796      49.85403063
H       51.51641593      47.63397784      50.50849699
