18
Lattice="100.0 0.0 0.0 0.0 100.0 0.0 0.0 0.0 100.0" Properties=species:S:1:pos:R:3 Energy=-241644.83764714107 Energy_pyscf=-241644.4183101602 pbc="F F F" Energy_pyscf_og=-241644.5675305288
C       48.84561349      48.57052459      50.14560489
C       47.60733518      49.09856660      50.15167370
C       47.45534906      50.49118993      49.79132699
C       48.62865002      51.22271756      49.63324196
C       49.91893569      50.65029446      49.82602647
C       51.09632342      51.55383954      49.84783837
C       52.35386055      51.05103224      50.06810819
C       52.56713840      49.62455426      50.23021871
C       51.43893856      48.75359814      49.98103920
C       50.09576804      49.27961650      49.92559561
H       48.99275059      47.47047988      50.41602788
H       46.70400306      48.45747491      50.39474027
H       46.43142936      50.92773064      49.80416639
H       48.56035983      52.35386130      49.57339595
H       50.92411120      52.61812445      49.64939263
H       53.15045309      51.79666729      50.15335062
H       53.50670979      49.04067911      50.24554548
H       51.51645821      47.71309309      50.21115124
