18
Lattice="100.0 0.0 0.0 0.0 100.0 0.0 0.0 0.0 100.0" Properties=species:S:1:pos:R:3 Energy=-241642.36696948102 Energy_pyscf=-241640.35575564645 pbc="F F F" Energy_pyscf_og=-241642.10365779506
C       48.78087096      48.51638195      50.09086190
C       47.53602757      49.16793396      50.04652957
C       47.42634576      50.61527790      49.75705637
C       48.56977988      51.38361499      49.72060506
C       49.82320960      50.75707209      50.00847933
C       51.03548669      51.51775581      49.80241326
C       52.29032649      50.97474532      49.93786298
C       52.48853679      49.56630622      50.20366428
C       51.26592637      48.83828435      50.26833151
C       49.97776816      49.30476747      50.07366008
H       48.95057199      47.47882313      50.32121345
H       46.67127360      48.56887590      50.30698854
H       46.47597643      51.13651197      49.64670980
H       48.50809594      52.40001306      49.37294454
H       50.85739139      52.54429455      49.47983684
H       53.05132232      51.77033876      49.67003742
H       53.45240040      49.01854132      50.02682712
H       51.36874076      47.74830577      50.64167003
