18
Lattice="100.0 0.0 0.0 0.0 100.0 0.0 0.0 0.0 100.0" Properties=species:S:1:pos:R:3 Energy=-241640.0661897557 Energy_pyscf=-241638.2540402437 pbc="F F F" Energy_pyscf_og=-241639.79236506543
C       48.84338137      48.53994174      50.26776359
C       47.57507924      49.07729876      50.14042479
C       47.47418495      50.45789393      49.96850233
C       48.64884605      51.28211526      49.76446973
C       49.89120088      50.71475012      49.90861765
C       51.13319180      51.46033631      49.93125045
C       52.36486809      50.91993447      50.15858594
C       52.51648479      49.49423604      50.26960169
C       51.37039033      48.67557435      50.22240979
C       50.00179039      49.29204438      50.12576946
H       49.01189317      47.54097691      50.54249249
H       46.71927226      48.40397638      50.41256233
H       46.44560978      50.80160550      50.13394438
H       48.57932067      52.22895050      49.44908472
H       51.25814299      52.55147481      49.76297711
H       53.25038817      51.68465431      50.22525793
H       53.52260159      48.93433604      50.35055379
H       51.38769144      47.59194526      50.27610832
