18
Lattice="100.0 0.0 0.0 0.0 100.0 0.0 0.0 0.0 100.0" Properties=species:S:1:pos:R:3 Energy=-241644.6508416457 Energy_pyscf=-241643.64751957456 pbc="F F F" Energy_pyscf_og=-241644.38896105892
C       48.91691986      48.52457770      50.25815441
C       47.64106277      49.09575085      50.11369456
C       47.47630167      50.46761970      49.93979360
C       48.62355855      51.25048278      49.79821944
C       49.87837608      50.72268932      49.80065763
C       51.12775778      51.48625280      49.97784440
C       52.34220169      50.88063072      50.23195703
C       52.53438132      49.43513394      50.28699165
C       51.42028618      48.71141217      50.23068492
C       50.06025456      49.30085189      50.06493426
H       49.02331686      47.49023175      50.63995417
H       46.74117661      48.44927280      50.43963201
H       46.51126319      50.90322071      50.14240393
H       48.51365467      52.29020599      49.40800476
H       51.08862758      52.56208729      49.78525324
H       53.21106611      51.51439202      50.19862745
H       53.51944791      48.98746616      50.37302966
H       51.37635340      47.62417219      50.19996744
