9
Lattice="100.0 0.0 0.0 0.0 100.0 0.0 0.0 0.0 100.0" Properties=species:S:1:pos:R:3 Energy=-167293.4375 Energy_pyscf=-167287.75851503236 pbc="F F F"
C       49.34432179      48.93850186      50.98144922
C       49.30696149      49.50013053      49.57269901
C       50.67113737      50.26285915      49.21706433
O       50.52383560      51.20295994      48.36579526
O       50.35497172      48.49908671      51.37380813
H       48.43641505      48.89688331      51.41235862
H       49.25780994      48.54916865      48.90129871
H       48.46565089      50.23467019      49.62000385
H       51.73233599      50.28594338      49.58461915
