9
Lattice="100.0 0.0 0.0 0.0 100.0 0.0 0.0 0.0 100.0" Properties=species:S:1:pos:R:3 Energy=-167304.796875 Energy_pyscf=-167306.84726259427 pbc="F F F"
C       50.43051609      48.78741024      50.61823220
C       49.44412786      49.93265156      50.06704906
C       49.99165696      50.90385885      49.01961311
O       50.91740545      50.60983822      48.28297709
O       50.09530324      48.21546066      51.64851303
H       51.15580709      48.49156975      49.90390291
H       48.81595427      49.24078488      49.42970377
H       49.04197799      50.29937682      51.00596248
H       49.47181747      51.97122918      48.97809530
