9
Lattice="100.0 0.0 0.0 0.0 100.0 0.0 0.0 0.0 100.0" Properties=species:S:1:pos:R:3 Energy=-167299.53125 Energy_pyscf=-167298.16671845876 pbc="F F F"
C       50.01054531      48.96685405      50.95933597
C       49.55403777      49.64077847      49.65976006
C       50.77650599      50.19988638      48.89082083
O       51.51792392      51.22866026      48.89144918
O       51.14244841      49.01662816      51.38413287
H       49.11776049      48.68092663      51.69156491
H       49.07488872      49.06625635      48.96362870
H       48.83712434      50.42572103      50.08404109
H       51.07000255      49.55332751      48.04245214
