9
Lattice="100.0 0.0 0.0 0.0 100.0 0.0 0.0 0.0 100.0" Properties=species:S:1:pos:R:3 Energy=-167297.828125 Energy_pyscf=-167290.58917761315 pbc="F F F"
C       50.01408839      49.30909919      51.11825006
C       50.00456162      49.87918179      49.51361544
C       50.76727095      51.09896180      49.14941516
O       51.10231104      51.38689129      48.05038897
O       50.54300903      48.21899647      51.39154488
H       49.42478580      50.00688331      51.94091863
H       50.52030268      48.97441118      48.97039182
H       48.98638398      49.69535055      49.27288466
H       51.32979930      51.61800617      50.18590012
