9
Lattice="100.0 0.0 0.0 0.0 100.0 0.0 0.0 0.0 100.0" Properties=species:S:1:pos:R:3 Energy=-167299.359375 Energy_pyscf=-167300.76333395 pbc="F F F"
C       50.53724833      49.58383503      51.18042798
C       49.46343675      50.42049197      50.49986332
C       49.86596088      51.09763072      49.06152161
O       50.98107207      51.59414686      49.07230547
O       50.12616736      48.54081072      51.61709915
H       51.49485607      50.10001321      51.57263074
H       48.63996463      49.68480838      50.56401865
H       49.17680645      51.37866837      51.04604601
H       49.17659095      51.10925123      48.26100205
