9
Lattice="100.0 0.0 0.0 0.0 100.0 0.0 0.0 0.0 100.0" Properties=species:S:1:pos:R:3 Energy=-167309.421875 Energy_pyscf=-167306.42450950813 pbc="F F F"
C       50.56424541      49.69409388      51.40870331
C       49.64619602      50.29802542      50.28989325
C       50.34362704      50.74805018      49.04597195
O       51.22449856      51.51541020      49.09428585
O       50.45621739      48.57263206      51.91344811
H       51.27893073      50.39086755      51.91240052
H       48.73126013      49.63436699      50.01645351
H       49.13408460      51.09514084      50.81397124
H       50.05129768      50.02768325      48.14641486
