9
Lattice="100.0 0.0 0.0 0.0 100.0 0.0 0.0 0.0 100.0" Properties=species:S:1:pos:R:3 Energy=-167302.84375 Energy_pyscf=-167303.3323431418 pbc="F F F"
C       50.36121454      48.78815809      50.63767861
C       49.44502575      49.86440616      50.09294796
C       50.03565775      50.95959745      48.98503505
O       50.86505749      50.78600678      48.09720088
O       50.30233457      48.32425804      51.74361663
H       51.08666440      48.18399766      49.97989642
H       48.90523814      49.33890010      49.36587179
H       48.80456645      50.25474219      50.84675362
H       49.55549863      51.96927438      49.19183622
