9
Lattice="100.0 0.0 0.0 0.0 100.0 0.0 0.0 0.0 100.0" Properties=species:S:1:pos:R:3 Energy=-167297.203125 Energy_pyscf=-167291.62298306625 pbc="F F F"
C       50.05275579      49.01874116      50.88160278
C       49.52916657      49.65479681      49.70851936
C       50.74141674      50.16436458      48.89878147
O       51.52506304      51.13323431      49.13953315
O       51.20009000      48.85793442      51.20691245
H       49.20317476      48.93154247      51.78658266
H       49.08995522      49.01477505      49.04289822
H       48.66189183      50.39799746      49.87485012
H       51.09847974      49.62132204      48.05440185
