9
Lattice="100.0 0.0 0.0 0.0 100.0 0.0 0.0 0.0 100.0" Properties=species:S:1:pos:R:3 Energy=-167297.953125 Energy_pyscf=-167293.05884041154 pbc="F F F"
C       50.56887948      49.15615494      50.84839726
C       49.79347920      50.48235891      50.47327080
C       50.24713411      51.02602788      48.87336672
O       51.23964436      51.61609325      48.53539646
O       50.38894109      48.63928505      51.86519714
H       51.14238123      48.63381825      50.04723570
H       48.71496461      49.99788600      50.62368042
H       49.86657361      51.33293435      51.18680272
H       49.51777168      50.55675536      48.10414806
