9
Lattice="100.0 0.0 0.0 0.0 100.0 0.0 0.0 0.0 100.0" Properties=species:S:1:pos:R:3 Energy=-167305.046875 Energy_pyscf=-167297.6303262759 pbc="F F F"
C       50.02526506      49.12440935      51.13474480
C       49.78456031      49.69039817      49.69625265
C       50.54280609      51.03049283      49.37492878
O       51.11604241      51.12020057      48.21059535
O       50.62916968      48.11401278      51.49912735
H       49.56349753      49.75721483      51.82367614
H       49.82557853      48.79961601      48.93983497
H       48.73850166      50.04761447      49.65272392
H       50.58633037      51.97125372      50.00575335
