9
Lattice="100.0 0.0 0.0 0.0 100.0 0.0 0.0 0.0 100.0" Properties=species:S:1:pos:R:3 Energy=-167304.375 Energy_pyscf=-167302.01889245948 pbc="F F F"
C       50.13803616      49.23573225      50.65248132
C       49.47445287      50.42237295      49.84245101
C       50.53680111      51.39090245      49.44820974
O       50.40322848      51.88832831      48.30484285
O       50.22632810      49.16359407      51.85910910
H       50.22129339      48.33023174      49.84583649
H       48.90830103      50.21097547      48.87364779
H       48.90601729      51.10660665      50.50170264
H       51.44897655      51.55535825      50.07493938
