9
Lattice="100.0 0.0 0.0 0.0 100.0 0.0 0.0 0.0 100.0" Properties=species:S:1:pos:R:3 Energy=-167306.5625 Energy_pyscf=-167304.5681106855 pbc="F F F"
C       50.34293685      48.54709301      50.27549821
C       49.52158500      49.82268570      49.88055695
C       50.45766290      50.81104963      49.36671488
O       51.25216662      50.43727037      48.51413883
O       50.56149832      48.31288751      51.42657100
H       50.85444723      47.99326918      49.52344588
H       48.77235443      49.46718931      49.21407637
H       48.84440807      50.14294878      50.79902971
H       50.40708102      51.96180930      49.62115961
