9
Lattice="100.0 0.0 0.0 0.0 100.0 0.0 0.0 0.0 100.0" Properties=species:S:1:pos:R:3 Energy=-167307.859375 Energy_pyscf=-167304.60645713418 pbc="F F F"
C       50.29273624      48.65430357      50.77026956
C       49.63748294      49.86879044      50.34061466
C       50.25428937      50.89102389      49.33350077
O       51.06178889      50.73213533      48.48591122
O       49.81641515      48.12028683      51.77539842
H       51.37862981      48.21554057      50.35120390
H       48.69967301      49.52242629      49.87651764
H       49.31997181      50.47970196      51.24144143
H       49.86464509      51.95928518      49.57245485
