9
Lattice="100.0 0.0 0.0 0.0 100.0 0.0 0.0 0.0 100.0" Properties=species:S:1:pos:R:3 Energy=-167303.90625 Energy_pyscf=-167298.61922983464 pbc="F F F"
C       50.06504042      48.94635080      50.56377995
C       49.51524305      50.31018593      49.98763653
C       50.42833728      50.72179400      48.85412437
O       50.38128707      51.65921312      48.12837509
O       49.54801752      48.66447718      51.69375698
H       50.70863292      48.14066814      49.93344516
H       48.56007377      50.24969679      49.48237348
H       49.46390927      51.09810082      50.82596142
H       51.16986187      49.88617032      48.71795888
