9
Lattice="100.0 0.0 0.0 0.0 100.0 0.0 0.0 0.0 100.0" Properties=species:S:1:pos:R:3 Energy=-167306.890625 Energy_pyscf=-167302.4322097245 pbc="F F F"
C       50.40254072      48.65171928      50.85389939
C       49.56888437      49.81524561      50.22121563
C       50.19940922      50.93806943      49.37990117
O       50.79443548      50.72169193      48.33990453
O       49.91187366      48.19069089      51.83406028
H       51.34663061      48.35176295      50.40090303
H       48.68960786      49.43280889      49.82338989
H       49.01331406      50.34458506      51.06556364
H       50.37943650      51.99526370      49.79444308
