9
Lattice="100.0 0.0 0.0 0.0 100.0 0.0 0.0 0.0 100.0" Properties=species:S:1:pos:R:3 Energy=-167307.65625 Energy_pyscf=-167300.74625600636 pbc="F F F"
C       50.29335349      49.50460793      51.25079272
C       49.92686745      49.94765110      49.71927158
C       50.73418465      51.18977344      49.41453562
O       50.75567617      51.54858402      48.24803574
O       50.25821810      48.38909030      51.78621424
H       50.72330944      50.42140764      51.87975709
H       49.83613729      49.10135258      48.99008877
H       48.92295364      50.27718975      49.70655051
H       51.26243895      51.58886513      50.23447466
