9
Lattice="100.0 0.0 0.0 0.0 100.0 0.0 0.0 0.0 100.0" Properties=species:S:1:pos:R:3 Energy=-167301.421875 Energy_pyscf=-167298.1066709932 pbc="F F F"
C       49.92976529      49.09067205      50.96068416
C       49.62613277      49.77746203      49.74605421
C       50.84876176      50.23776832      48.95641702
O       51.11928396      51.31857893      48.67484832
O       51.08959244      48.76823499      51.26664482
H       49.19236344      48.59781430      51.56359688
H       49.14009996      49.17017975      49.01658544
H       48.91924648      50.56356788      50.08651566
H       51.27079970      49.29419231      48.30409011
