9
Lattice="100.0 0.0 0.0 0.0 100.0 0.0 0.0 0.0 100.0" Properties=species:S:1:pos:R:3 Energy=-167308.65625 Energy_pyscf=-167302.78026135755 pbc="F F F"
C       49.81556922      49.19487562      50.52759957
C       49.50793681      50.60181696      50.01790257
C       50.58238521      51.13775157      49.26579623
O       50.59377873      51.43479472      48.11262822
O       50.10587835      49.12805938      51.72610239
H       49.82101733      48.24714617      49.85230362
H       48.67270913      50.40138179      49.42663595
H       49.24260671      51.20749062      50.91204822
H       51.41914471      51.53897217      50.01327219
