9
Lattice="100.0 0.0 0.0 0.0 100.0 0.0 0.0 0.0 100.0" Properties=species:S:1:pos:R:3 Energy=-167307.359375 Energy_pyscf=-167306.70828990257 pbc="F F F"
C       50.32742779      48.79751862      50.49884884
C       49.54268931      50.06785771      50.03961257
C       50.38175024      51.04535318      49.23796300
O       51.13027641      50.92138508      48.28488147
O       50.66670868      48.60243324      51.63126941
H       50.34702469      47.99938006      49.84936414
H       48.72154848      49.64435363      49.35529879
H       49.04266009      50.59887473      50.88238774
H       50.18305507      52.12739732      49.57164949
