9
Lattice="100.0 0.0 0.0 0.0 100.0 0.0 0.0 0.0 100.0" Properties=species:S:1:pos:R:3 Energy=-167304.765625 Energy_pyscf=-167296.42647551664 pbc="F F F"
C       50.30669240      48.94050921      50.88861466
C       49.34884177      49.80716639      50.08147424
C       50.01294591      50.98655552      49.13380430
O       51.01409713      50.99464164      48.40791585
O       50.09932647      47.88941278      51.49438329
H       51.40951635      48.95795367      50.63708482
H       48.66501584      49.11470311      49.61164496
H       48.74280303      50.34229933      50.90983911
H       49.21459345      51.79530092      49.02033892
