9
Lattice="100.0 0.0 0.0 0.0 100.0 0.0 0.0 0.0 100.0" Properties=species:S:1:pos:R:3 Energy=-167310.828125 Energy_pyscf=-167307.44519264364 pbc="F F F"
C       49.93022263      49.02769783      50.61253071
C       49.50666879      50.25478838      49.98755570
C       50.56012808      50.67075806      48.90000761
O       50.47686018      51.79751385      48.50140514
O       49.69666742      48.71897457      51.77315011
H       50.53371158      48.24083542      50.02960359
H       48.61800633      49.97293110      49.41468930
H       49.35824911      51.12530731      50.61109889
H       51.11927479      49.85015226      48.35501058
