9
Lattice="100.0 0.0 0.0 0.0 100.0 0.0 0.0 0.0 100.0" Properties=species:S:1:pos:R:3 Energy=-167307.390625 Energy_pyscf=-167305.91375586414 pbc="F F F"
C       50.47611473      49.72455310      51.48682729
C       49.58066168      50.34078500      50.38885705
C       50.39036740      50.61400327      49.07076927
O       51.13386473      51.51470703      49.10273209
O       50.61191041      48.52183167      51.66566518
H       51.23478668      50.34921841      51.90331401
H       48.67624205      49.58733347      50.14151751
H       49.14926793      51.31150522      50.68186965
H       50.17034043      49.99762416      48.20083109
