9
Lattice="100.0 0.0 0.0 0.0 100.0 0.0 0.0 0.0 100.0" Properties=species:S:1:pos:R:3 Energy=-167301.625 Energy_pyscf=-167296.6429226687 pbc="F F F"
C       49.96887906      48.76401427      50.63795779
C       49.48191035      49.45444394      49.48344269
C       50.46614039      50.57882931      49.16647882
O       51.56320633      50.51639952      48.62623952
O       51.10988150      48.64159481      51.01819057
H       49.11021574      48.51550612      51.47244811
H       49.05279986      48.86461258      48.65193796
H       48.63437358      50.22831102      49.78048981
H       50.12438572      51.61664322      49.44177536
