9
Lattice="100.0 0.0 0.0 0.0 100.0 0.0 0.0 0.0 100.0" Properties=species:S:1:pos:R:3 Energy=-167310.15625 Energy_pyscf=-167301.6521965879 pbc="F F F"
C       49.92460306      48.97634969      50.55945591
C       49.51224743      50.20538952      49.93184542
C       50.50941502      50.66718286      48.79173784
O       50.48645648      51.83242156      48.30341348
O       49.96926982      48.78765694      51.74134984
H       50.15776725      48.12659804      49.91591384
H       48.46310588      49.96388665      49.61951410
H       49.36651351      51.04250292      50.52208313
H       51.43368138      50.04990024      48.78275034
