9
Lattice="100.0 0.0 0.0 0.0 100.0 0.0 0.0 0.0 100.0" Properties=species:S:1:pos:R:3 Energy=-167303.8125 Energy_pyscf=-167295.97953975797 pbc="F F F"
C       50.30042476      48.97999431      50.84538693
C       49.37175662      49.82822583      50.06138115
C       49.97906683      50.95613124      49.15272128
O       50.84719854      50.80651076      48.45360313
O       50.07231754      48.10687075      51.69828343
H       51.45340268      48.95640648      50.48239884
H       48.76219355      49.17265928      49.41284742
H       48.70092686      50.18199517      50.74300073
H       49.35455754      51.84543565      49.30377047
