9
Lattice="100.0 0.0 0.0 0.0 100.0 0.0 0.0 0.0 100.0" Properties=species:S:1:pos:R:3 Energy=-167307.40625 Energy_pyscf=-167303.07322968566 pbc="F F F"
C       50.38656811      48.82115248      50.59417868
C       49.34330842      49.78569333      49.93150061
C       50.12865186      50.81854124      49.18872749
O       51.08964468      50.54476214      48.44449964
O       50.30396361      47.99221759      51.45624920
H       51.40999659      48.96698972      50.22042418
H       48.57373269      49.08469622      49.40934433
H       48.72639482      50.24003778      50.71592450
H       49.47233792      51.76004515      49.13087256
