9
Lattice="100.0 0.0 0.0 0.0 100.0 0.0 0.0 0.0 100.0" Properties=species:S:1:pos:R:3 Energy=-167302.625 Energy_pyscf=-167295.86783734692 pbc="F F F"
C       50.36622830      48.70890518      50.31525848
C       49.34984004      49.71752262      49.93108129
C       50.37519660      50.66038240      49.29315945
O       51.35571543      50.30926534      48.71591740
O       50.83184885      48.38923374      51.36562081
H       50.76655153      48.07780382      49.45574632
H       48.71125529      49.52566267      49.03677058
H       48.84435454      50.24827534      50.77028078
H       50.38049131      51.85710725      49.70043779
