9
Lattice="100.0 0.0 0.0 0.0 100.0 0.0 0.0 0.0 100.0" Properties=species:S:1:pos:R:3 Energy=-167299.59375 Energy_pyscf=-167287.89191692823 pbc="F F F"
C       50.49107218      49.68684747      51.35747231
C       49.51376114      50.08609951      50.24927760
C       50.44408252      50.51325252      49.16303855
O       51.06774629      51.52362277      49.13179961
O       50.58567666      48.48799425      51.79988120
H       50.59903420      50.53540454      51.87313075
H       48.74701217      49.47496117      49.79883542
H       49.11148192      51.10642965      50.63964893
H       50.58732306      49.86006524      48.24463401
