9
Lattice="100.0 0.0 0.0 0.0 100.0 0.0 0.0 0.0 100.0" Properties=species:S:1:pos:R:3 Energy=-167309.09375 Energy_pyscf=-167304.93828489858 pbc="F F F"
C       50.22312706      48.81939263      50.51061260
C       49.52559387      50.06341520      50.06593117
C       50.34974700      51.07566518      49.18849376
O       51.24123514      50.79388331      48.36691550
O       50.41956981      48.38754211      51.70332688
H       50.75688615      48.13747205      49.70719462
H       48.58867875      49.91152304      49.57718511
H       49.19721963      50.50845205      50.99483354
H       50.03463770      52.10579673      49.28340109
