9
Lattice="100.0 0.0 0.0 0.0 100.0 0.0 0.0 0.0 100.0" Properties=species:S:1:pos:R:3 Energy=-167304.609375 Energy_pyscf=-167299.55669008094 pbc="F F F"
C       50.56083682      49.69305913      51.45116990
C       49.58247841      50.32863374      50.36527059
C       50.34319688      50.64550475      49.17860527
O       51.19688260      51.55451852      49.18068790
O       50.43986487      48.54260101      51.63739908
H       51.44833410      50.39396985      51.73502858
H       48.62053161      49.66697559      50.26943100
H       48.94386815      51.17039463      50.60864566
H       50.30926682      49.97651338      48.21896906
