9
Lattice="100.0 0.0 0.0 0.0 100.0 0.0 0.0 0.0 100.0" Properties=species:S:1:pos:R:3 Energy=-167297.265625 Energy_pyscf=-167295.97824772308 pbc="F F F"
C       50.50043182      49.14234753      50.80231393
C       49.81803777      50.40635956      50.41138788
C       50.18849734      50.86318002      48.95674003
O       51.31002655      51.50337743      48.78367750
O       50.60857948      48.79833926      51.93204567
H       50.99525666      48.66542545      50.01836357
H       48.69887307      49.98989224      50.55194784
H       49.85787165      51.28911506      51.07532520
H       49.46954566      50.76755848      48.06265850
