9
Lattice="100.0 0.0 0.0 0.0 100.0 0.0 0.0 0.0 100.0" Properties=species:S:1:pos:R:3 Energy=-167310.71875 Energy_pyscf=-167308.65662911395 pbc="F F F"
C       50.20315728      48.98216674      50.46604939
C       49.62417960      50.34449865      50.17392148
C       50.38183002      51.14606746      49.03803910
O       51.49284640      51.07849223      48.72155310
O       50.94686158      48.85675374      51.43928832
H       50.01059571      48.15975617      49.63256220
H       48.58105142      50.22290261      49.81047550
H       49.57270015      51.04032472      50.98129793
H       49.67185933      51.84369569      48.48645155
