9
Lattice="100.0 0.0 0.0 0.0 100.0 0.0 0.0 0.0 100.0" Properties=species:S:1:pos:R:3 Energy=-167312.875 Energy_pyscf=-167313.25360579978 pbc="F F F"
C       50.32291434      48.91928074      50.84738325
C       49.35592324      49.79086948      50.09148666
C       49.92614270      50.93980524      49.21225282
O       50.83419791      50.79713402      48.41047188
O       49.98595740      48.31168758      51.80314299
H       51.40796964      48.89437928      50.39243685
H       48.98577475      49.16159010      49.25376953
H       48.61348350      50.08758748      50.86584774
H       49.36943440      51.92509946      49.31390265
