9
Lattice="100.0 0.0 0.0 0.0 100.0 0.0 0.0 0.0 100.0" Properties=species:S:1:pos:R:3 Energy=-167307.203125 Energy_pyscf=-167304.20422383654 pbc="F F F"
C       50.23541254      49.59950836      51.23157411
C       49.41626503      49.96618408      50.01545735
C       50.57158629      50.46276899      48.94572566
O       50.89449543      51.60431146      48.86899556
O       50.64370751      48.44361971      51.25936401
H       50.49129867      50.39002151      51.88282203
H       48.82529919      49.21034300      49.65675780
H       48.89876929      50.96007018      50.17443373
H       51.20613490      49.70116602      48.46918454
