9
Lattice="100.0 0.0 0.0 0.0 100.0 0.0 0.0 0.0 100.0" Properties=species:S:1:pos:R:3 Energy=-167311.578125 Energy_pyscf=-167309.8742933524 pbc="F F F"
C       49.43454967      49.01515603      50.91817543
C       49.35322124      49.53888603      49.53937076
C       50.63469245      50.35095667      49.14166471
O       50.59498674      51.48213479      48.65374170
O       50.42454274      48.82984054      51.54509283
H       48.47477027      48.90688532      51.55138921
H       49.09911623      48.70681964      48.88438992
H       48.50079820      50.35355301      49.41586818
H       51.57807315      49.84613141      49.44124403
