9
Lattice="100.0 0.0 0.0 0.0 100.0 0.0 0.0 0.0 100.0" Properties=species:S:1:pos:R:3 Energy=-167302.953125 Energy_pyscf=-167293.5367654104 pbc="F F F"
C       50.32538276      48.97593514      50.86936781
C       49.26606755      49.80054177      50.15399683
C       49.89026433      50.90848561      49.04044201
O       50.92596343      50.82827269      48.33917890
O       50.11244177      48.10093654      51.60912110
H       51.46779410      48.99835272      50.48600786
H       48.82763406      49.08439654      49.46880111
H       48.48287580      50.22110758      50.81585579
H       49.52444834      51.88907195      49.37845782
