9
Lattice="100.0 0.0 0.0 0.0 100.0 0.0 0.0 0.0 100.0" Properties=species:S:1:pos:R:3 Energy=-167303.53125 Energy_pyscf=-167302.59999556185 pbc="F F F"
C       49.93914036      49.20583088      51.06013115
C       49.79369540      49.66869189      49.70484667
C       50.58090078      50.95555103      49.25991955
O       51.22044987      51.13026504      48.29030609
O       50.76327291      48.30296382      51.33204149
H       49.50847007      49.64130710      51.97371867
H       49.73589974      48.78453641      49.06053070
H       48.84935514      50.18259741      49.64431802
H       50.44169982      51.77205655      49.99388137
