9
Lattice="100.0 0.0 0.0 0.0 100.0 0.0 0.0 0.0 100.0" Properties=species:S:1:pos:R:3 Energy=-167303.671875 Energy_pyscf=-167294.24580647788 pbc="F F F"
C       49.46877061      48.87847836      51.07312389
C       49.35784756      49.71791879      49.71033569
C       50.65386221      50.39097254      48.86518368
O       50.54099859      51.56546852      48.29796631
O       50.40856461      48.26691569      51.51619063
H       48.43166198      48.75058482      51.51334097
H       48.97876357      49.03666893      48.95027639
H       48.70651203      50.58745976      50.04311701
H       51.57576374      49.80891320      48.58566917
