9
Lattice="100.0 0.0 0.0 0.0 100.0 0.0 0.0 0.0 100.0" Properties=species:S:1:pos:R:3 Energy=-167304.4375 Energy_pyscf=-167302.11118481547 pbc="F F F"
C       49.87295759      49.14218091      50.60316234
C       49.43826238      50.55055306      50.02640713
C       50.55350560      51.23776619      49.38952764
O       50.67412738      51.17017240      48.12985191
O       50.15889541      48.92862683      51.72906240
H       49.72279218      48.23015519      49.90373481
H       48.66187775      50.62609619      49.27545185
H       49.32632358      51.12640401      50.88313428
H       51.34226323      51.86949858      49.88213290
