9
Lattice="100.0 0.0 0.0 0.0 100.0 0.0 0.0 0.0 100.0" Properties=species:S:1:pos:R:3 Energy=-167310.578125 Energy_pyscf=-167308.35575300915 pbc="F F F"
C       50.30362930      48.69347411      50.31027099
C       49.39419915      49.73029645      49.84681931
C       50.44709820      50.76706318      49.31034140
O       51.27348206      50.39821645      48.50198052
O       50.72711732      48.58196879      51.41210892
H       50.71941768      48.02435268      49.51023304
H       48.74965397      49.33401315      49.03459865
H       48.87888845      50.12385384      50.77392842
H       50.50085094      51.80674899      49.89073036
