9
Lattice="100.0 0.0 0.0 0.0 100.0 0.0 0.0 0.0 100.0" Properties=species:S:1:pos:R:3 Energy=-167296.5 Energy_pyscf=-167288.24227889683 pbc="F F F"
C       50.39609781      49.76676947      51.54375045
C       49.68517108      50.29396271      50.25376174
C       50.48749014      50.74318192      49.06716396
O       51.01198433      51.82720692      48.97653203
O       50.12485052      48.59964492      51.85328652
H       51.38372864      50.13811031      51.80614101
H       48.97786462      49.37192690      50.34548404
H       49.24458711      51.19091022      50.53785997
H       50.11796060      50.03266278      48.25062829
