9
Lattice="100.0 0.0 0.0 0.0 100.0 0.0 0.0 0.0 100.0" Properties=species:S:1:pos:R:3 Energy=-167306.46875 Energy_pyscf=-167297.8951282726 pbc="F F F"
C       50.29224533      49.15693662      50.69274818
C       49.97254219      50.61817547      50.33857838
C       50.08631429      50.91016265      48.77942834
O       51.17010325      51.29812991      48.37819433
O       50.19979910      48.70531999      51.84332595
H       50.73843349      48.45306903      50.02514429
H       48.84658487      50.58358476      50.37599435
H       50.53430856      51.49207519      50.80933530
H       49.22363375      50.87518679      47.98952508
