9
Lattice="100.0 0.0 0.0 0.0 100.0 0.0 0.0 0.0 100.0" Properties=species:S:1:pos:R:3 Energy=-167306.421875 Energy_pyscf=-167302.8508706796 pbc="F F F"
C       50.08886860      49.29481771      51.19825202
C       49.48780442      50.52998053      50.36835129
C       50.52417858      50.69935805      49.23112370
O       51.48425885      51.43203877      49.51894584
O       51.18500600      49.19567582      51.78825758
H       49.39713703      48.44540295      51.40926393
H       48.39026244      50.36344185      50.11367121
H       49.45395742      51.37033646      51.04271548
H       50.41581351      49.98432045      48.30513318
