9
Lattice="100.0 0.0 0.0 0.0 100.0 0.0 0.0 0.0 100.0" Properties=species:S:1:pos:R:3 Energy=-167310.546875 Energy_pyscf=-167309.07657864256 pbc="F F F"
C       49.79351720      49.13692264      50.58437917
C       49.41267195      50.53946478      50.07013741
C       50.63947827      51.20632826      49.32775030
O       50.67356519      51.28683470      48.08486178
O       50.23985776      48.99344088      51.70504425
H       49.86778313      48.18221446      49.93518622
H       48.62026524      50.69946431      49.29947310
H       49.10110621      51.19168454      50.89293043
H       51.39787444      51.66893973      49.94588195
