9
Lattice="100.0 0.0 0.0 0.0 100.0 0.0 0.0 0.0 100.0" Properties=species:S:1:pos:R:3 Energy=-167309.25 Energy_pyscf=-167307.71726395006 pbc="F F F"
C       50.51281874      49.70841955      51.45615597
C       49.59872719      50.32831327      50.37679716
C       50.31927330      50.73879834      49.08552122
O       51.21113985      51.51436791      49.01237646
O       50.35584990      48.49896069      51.73074306
H       51.26981618      50.40848697      51.87283475
H       48.95633946      49.45985513      50.09687657
H       49.09730816      51.33444079      50.78183974
H       50.09307962      49.98262063      48.20530944
