9
Lattice="100.0 0.0 0.0 0.0 100.0 0.0 0.0 0.0 100.0" Properties=species:S:1:pos:R:3 Energy=-167310.359375 Energy_pyscf=-167310.68664506255 pbc="F F F"
C       50.24696813      48.75131283      50.48008534
C       49.53288507      50.06385735      50.08774783
C       50.31174389      51.01402799      49.16257623
O       51.28045196      50.88054545      48.41776628
O       50.37793112      48.47655954      51.65675914
H       50.67254364      48.08815351      49.66884909
H       48.64742724      49.78769777      49.52793180
H       49.35087833      50.74917840      50.95566966
H       49.87413705      52.00335898      49.39912599
