9
Lattice="100.0 0.0 0.0 0.0 100.0 0.0 0.0 0.0 100.0" Properties=species:S:1:pos:R:3 Energy=-167303.5625 Energy_pyscf=-167302.86506817077 pbc="F F F"
C       49.41337452      49.08335227      50.98616741
C       49.31977934      49.51097167      49.58945581
C       50.60646044      50.27430241      49.20737958
O       50.59719115      51.46332466      48.88788858
O       50.36350547      48.70919829      51.63723131
H       48.43001010      48.89435904      51.39339629
H       49.45470583      48.64177477      48.83429722
H       48.28371941      49.94871292      49.39633588
H       51.61407402      49.83706626      49.09396863
