9
Lattice="100.0 0.0 0.0 0.0 100.0 0.0 0.0 0.0 100.0" Properties=species:S:1:pos:R:3 Energy=-167301.59375 Energy_pyscf=-167290.02605632565 pbc="F F F"
C       50.60321963      49.62968986      51.41151531
C       49.64564932      50.28611520      50.31603842
C       50.25404392      50.79117657      49.05509071
O       51.21159062      51.56398679      49.06899480
O       50.38183442      48.60831987      51.97544189
H       51.29136907      50.29411399      51.78041311
H       48.77775654      49.63979505      50.06954534
H       49.11978014      51.07641380      50.65077822
H       50.13395744      50.07428323      48.31254155
