9
Lattice="100.0 0.0 0.0 0.0 100.0 0.0 0.0 0.0 100.0" Properties=species:S:1:pos:R:3 Energy=-167302.515625 Energy_pyscf=-167294.13442061198 pbc="F F F"
C       50.29201243      48.53391278      50.25787151
C       49.37853630      49.69928689      49.92024917
C       50.45701841      50.86386072      49.31753593
O       51.45723171      50.41123380      48.66400385
O       50.84050225      48.52865044      51.31915075
H       50.69071046      47.82752903      49.46648289
H       48.72120069      49.40441777      49.16531012
H       48.75356123      50.21487515      50.78295346
H       50.37250010      51.99258474      49.68673479
