9
Lattice="100.0 0.0 0.0 0.0 100.0 0.0 0.0 0.0 100.0" Properties=species:S:1:pos:R:3 Energy=-167297.484375 Energy_pyscf=-167283.81962426615 pbc="F F F"
C       49.82684461      49.23627414      51.05592951
C       49.87989424      49.58908860      49.46800702
C       50.09625746      50.92751475      48.92449912
O       50.91331155      51.23805546      48.12917906
O       50.37347976      48.12161959      51.36545875
H       49.74418390      49.91555319      51.92194232
H       50.83853826      49.14895976      49.08647653
H       48.96740276      49.22275521      49.15068007
H       49.77261654      51.87618795      49.62230941
