12
Lattice="100.0 0.0 0.0 0.0 100.0 0.0 0.0 0.0 100.0" Properties=species:S:1:pos:R:3 Energy=-145426.84375 Energy_pyscf=-145426.75642272903 Energy_nn=-145426.875 pbc="F F F"
C       49.02561778      48.96670523      49.76297992
C       48.70003409      50.28799215      50.17537751
C       49.67827635      51.23528858      50.34548356
C       51.06528524      50.84363676      50.30722519
C       51.45307176      49.58680433      50.03333511
C       50.44357921      48.73390891      49.59345670
H       48.36184559      48.14540544      49.46108439
H       47.66345979      50.53381012      50.39168142
H       49.46797380      52.25255080      50.65747987
H       51.77070030      51.58593159      50.76387188
H       52.48756639      49.27078613      49.90281223
H       50.71847091      47.74035967      49.32639052
