12
Lattice="100.0 0.0 0.0 0.0 100.0 0.0 0.0 0.0 100.0" Properties=species:S:1:pos:R:3 Energy=-145426.203125 Energy_pyscf=-145425.66508515144 Energy_nn=-145426.328125 pbc="F F F"
C       48.97618198      49.08770191      49.56379042
C       48.59987844      50.32581016      50.14881156
C       49.49066862      51.35316571      50.42302859
C       50.89818378      51.01842279      50.34384761
C       51.31011347      49.75410767      49.90839195
C       50.36604639      48.74205858      49.53134599
H       48.24743248      48.30777572      49.41987345
H       47.65501874      50.47779088      50.60339502
H       49.24880992      52.43200915      50.66615048
H       51.55160187      51.87529095      50.49412672
H       52.36311216      49.52670685      49.87970159
H       50.68765912      47.71661042      49.32995905
