12
Lattice="100.0 0.0 0.0 0.0 100.0 0.0 0.0 0.0 100.0" Properties=species:S:1:pos:R:3 Energy=-145437.6875 Energy_pyscf=-145437.25259817016 Energy_nn=-145437.546875 pbc="F F F"
C       48.99503300      49.05770106      49.68481285
C       48.60911290      50.33335485      50.09258104
C       49.54168107      51.31762341      50.39155379
C       50.90499858      51.01433134      50.34713679
C       51.32662621      49.72805785      49.97674224
C       50.37694432      48.75660620      49.62549449
H       48.25248805      48.27501382      49.38564115
H       47.57076625      50.44814312      50.20407758
H       49.19601077      52.34130674      50.63762391
H       51.64983659      51.79301849      50.60009193
H       52.41363337      49.47539093      49.98417535
H       50.71266950      47.75572446      49.28776957
