12
Lattice="100.0 0.0 0.0 0.0 100.0 0.0 0.0 0.0 100.0" Properties=species:S:1:pos:R:3 Energy=-145438.078125 Energy_pyscf=-145433.71102986942 Energy_nn=-145438.015625 pbc="F F F"
C       49.07269953      48.98727524      49.57955033
C       48.73735208      50.30543223      50.04604167
C       49.64886147      51.30690583      50.38315170
C       50.98356552      50.93086982      50.35377445
C       51.38377290      49.68009549      49.90424417
C       50.43673632      48.70603521      49.55845274
H       48.30773198      48.21748019      49.32623470
H       47.67712583      50.58065528      50.07540600
H       49.24284499      52.20215233      50.86222295
H       51.77578398      51.65304039      50.51530773
H       52.45679793      49.44446897      49.88081590
H       50.73257768      47.74208185      49.15553922
