12
Lattice="100.0 0.0 0.0 0.0 100.0 0.0 0.0 0.0 100.0" Properties=species:S:1:pos:R:3 Energy=-145420.171875 Energy_pyscf=-145417.61122278217 Energy_nn=-145420.375 pbc="F F F"
C       49.05121411      49.03258711      49.78317516
C       48.67384997      50.25243010      50.20580011
C       49.55914089      51.29078515      50.37544771
C       50.92867776      50.95428498      50.38117668
C       51.37229453      49.62931225      49.98066941
C       50.35634848      48.71819604      49.68280195
H       48.31192447      48.48767429      49.18460525
H       47.64794525      50.52147554      50.10817783
H       49.22110786      52.25875019      50.67448375
H       51.69224806      51.77085770      50.48232527
H       52.32115792      49.41911692      49.59646190
H       50.74833225      47.80118236      49.33112666
