12
Lattice="100.0 0.0 0.0 0.0 100.0 0.0 0.0 0.0 100.0" Properties=species:S:1:pos:R:3 Energy=-145436.390625 Energy_pyscf=-145431.52191025252 Energy_nn=-145436.34375 pbc="F F F"
C       49.01537930      49.02972416      49.67071568
C       48.61986616      50.29696395      50.16049613
C       49.56538894      51.30263428      50.47648655
C       50.88729060      51.03720052      50.31200480
C       51.28252258      49.74482545      49.91607941
C       50.33427904      48.69587641      49.71053432
H       48.22183618      48.28714836      49.54655472
H       47.57542538      50.53546700      50.20945706
H       49.17593094      52.26599202      50.78370934
H       51.67404221      51.76024080      50.49466463
H       52.36327155      49.54824853      49.95949872
H       50.68283827      47.74421962      49.24637427
