12
Lattice="100.0 0.0 0.0 0.0 100.0 0.0 0.0 0.0 100.0" Properties=species:S:1:pos:R:3 Energy=-145418.734375 Energy_pyscf=-145415.52043418822 Energy_nn=-145418.96875 pbc="F F F"
C       48.96772485      49.04616829      49.72210141
C       48.67266097      50.22921908      50.19881828
C       49.56891301      51.26558601      50.43874999
C       50.93589569      50.94911075      50.42761463
C       51.33154457      49.73645175      49.90336811
C       50.38444875      48.73135063      49.59115919
H       48.29562046      48.46742987      49.23143716
H       47.63142611      50.38226301      50.15143480
H       49.29652617      52.36183038      50.59049765
H       51.75750636      51.74654873      50.47972529
H       52.38377686      49.47244778      49.75514238
H       50.67255816      47.75292522      49.30205129
