12
Lattice="100.0 0.0 0.0 0.0 100.0 0.0 0.0 0.0 100.0" Properties=species:S:1:pos:R:3 Energy=-145422.640625 Energy_pyscf=-145420.4316223566 Energy_nn=-145422.890625 pbc="F F F"
C       49.08320507      48.97660831      49.84425042
C       48.65329281      50.31292276      50.21233474
C       49.63963395      51.22165703      50.36996350
C       51.07679962      50.86674094      50.27175628
C       51.42622474      49.56047897      50.08216984
C       50.46727382      48.68135997      49.58817430
H       48.40051150      48.16436808      49.32077100
H       47.59663839      50.57814843      50.46287448
H       49.46123315      52.26608679      50.67186121
H       51.77185810      51.63825793      50.62712735
H       52.48939607      49.24752890      50.00095402
H       50.74221970      47.70482676      49.26503797
