12
Lattice="100.0 0.0 0.0 0.0 100.0 0.0 0.0 0.0 100.0" Properties=species:S:1:pos:R:3 Energy=-145426.015625 Energy_pyscf=-145428.23044574488 Energy_nn=-145426.140625 pbc="F F F"
C       48.98507763      49.01259126      49.55769078
C       48.69139681      50.34921028      49.85207357
C       49.59579581      51.32232968      50.25299767
C       50.98704941      51.04890757      50.10897415
C       51.33142007      49.77352945      49.77683593
C       50.34197149      48.77787954      49.52113717
H       48.26547591      48.18607278      49.44732554
H       47.64961347      50.47672981      50.05119511
H       49.25841606      52.24661620      50.72521733
H       51.68139896      51.81081559      50.33734298
H       52.37468391      49.40475632      49.69845940
H       50.71233828      47.72321598      49.30889445
