12
Lattice="100.0 0.0 0.0 0.0 100.0 0.0 0.0 0.0 100.0" Properties=species:S:1:pos:R:3 Energy=-145438.640625 Energy_pyscf=-145429.61716426822 Energy_nn=-145438.703125 pbc="F F F"
C       48.99911723      48.96267009      49.83177603
C       48.56226382      50.25953365      50.21806966
C       49.49685277      51.30508950      50.47556500
C       50.82854760      50.97597721      50.38655873
C       51.26335453      49.78531276      49.97806455
C       50.36022139      48.70877884      49.64916569
H       48.26403918      48.14527553      49.78768148
H       47.53438578      50.44245960      50.29487789
H       49.06755627      52.29830957      50.73960690
H       51.70010413      51.66018835      50.69543836
H       52.31951543      49.50236358      49.91416745
H       50.72609119      47.74813642      49.29398618
