12
Lattice="100.0 0.0 0.0 0.0 100.0 0.0 0.0 0.0 100.0" Properties=species:S:1:pos:R:3 Energy=-145416.796875 Energy_pyscf=-145412.34511268005 Energy_nn=-145416.9375 pbc="F F F"
C       49.05220734      49.07539912      49.53102231
C       48.55019150      50.26936484      49.88386014
C       49.57690826      51.37515871      50.18218524
C       50.93755877      51.02740353      50.13029036
C       51.33112049      49.75630047      49.75889744
C       50.37850592      48.77279110      49.49234459
H       48.22071169      48.47193954      49.64982923
H       47.50131192      50.56315959      50.04860099
H       49.20995216      52.29511697      50.59232940
H       51.70670606      51.80147320      50.52434902
H       52.45662509      49.49757391      49.67756923
H       50.72777188      47.66510173      49.34181011
