12
Lattice="100.0 0.0 0.0 0.0 100.0 0.0 0.0 0.0 100.0" Properties=species:S:1:pos:R:3 Energy=-145424.234375 Energy_pyscf=-145425.73661831958 Energy_nn=-145424.328125 pbc="F F F"
C       49.05478647      49.00165844      49.67947272
C       48.66694423      50.24652471      50.03846423
C       49.64677498      51.21166878      50.42819051
C       51.01051752      50.99554605      50.33607658
C       51.31448172      49.71580298      49.92349221
C       50.42694765      48.68438202      49.61289994
H       48.46799673      48.28166546      49.20833933
H       47.65053504      50.64804632      50.12497093
H       49.30547994      52.16598312      50.76310017
H       51.79307151      51.69810404      50.56019363
H       52.32776407      49.37269594      49.77551441
H       50.78219885      47.71812051      49.17241972
