12
Lattice="100.0 0.0 0.0 0.0 100.0 0.0 0.0 0.0 100.0" Properties=species:S:1:pos:R:3 Energy=-145436.296875 Energy_pyscf=-145430.69964526157 Energy_nn=-145436.171875 pbc="F F F"
C       49.08058106      49.01304665      49.77443644
C       48.70842364      50.27082205      50.18576035
C       49.68137325      51.21486459      50.40696001
C       51.04968694      50.87286378      50.31875973
C       51.42501325      49.54311518      50.04670250
C       50.47129151      48.68749396      49.60190061
H       48.37086960      48.25678988      49.50928991
H       47.63821420      50.49780248      50.35060567
H       49.45848919      52.25856948      50.61262102
H       51.73873840      51.61251505      50.76809831
H       52.51169191      49.28381612      49.87804434
H       50.68746756      47.67507863      49.30094754
