12
Lattice="100.0 0.0 0.0 0.0 100.0 0.0 0.0 0.0 100.0" Properties=species:S:1:pos:R:3 Energy=-145428.21875 Energy_pyscf=-145426.39277892635 Energy_nn=-145428.234375 pbc="F F F"
C       49.06957806      49.04555210      49.85395132
C       48.57262655      50.33023941      50.06352376
C       49.54130753      51.23091705      50.44941184
C       50.95744196      50.97595573      50.44863227
C       51.37715969      49.66931351      49.92631466
C       50.43726646      48.73737193      49.65802602
H       48.33131259      48.26126296      49.56375830
H       47.49596243      50.49925870      50.17576485
H       49.25476297      52.26441419      50.69406014
H       51.60133547      51.84459557      50.68139984
H       52.45418012      49.45382233      50.02385409
H       50.66110223      47.76101908      49.20767236
