12
Lattice="100.0 0.0 0.0 0.0 100.0 0.0 0.0 0.0 100.0" Properties=species:S:1:pos:R:3 Energy=-145422.90625 Energy_pyscf=-145424.37435558203 Energy_nn=-145422.890625 pbc="F F F"
C       49.06192774      48.94712492      49.67431965
C       48.69834199      50.26308386      50.00958509
C       49.66777853      51.30728993      50.36854449
C       51.00943845      50.96452546      50.43771939
C       51.32295038      49.66412055      49.89986459
C       50.43735020      48.68756946      49.45372125
H       48.36936012      48.14045976      49.41617976
H       47.62977576      50.71704162      50.03578330
H       49.25231375      52.19059569      50.81526486
H       51.82230448      51.64805029      50.56949455
H       52.37658023      49.42081111      49.85656966
H       50.81505265      47.76879774      49.08238463
