12
Lattice="100.0 0.0 0.0 0.0 100.0 0.0 0.0 0.0 100.0" Properties=species:S:1:pos:R:3 Energy=-145419.0 Energy_pyscf=-145410.46382295346 Energy_nn=-145419.46875 pbc="F F F"
C       48.98046592      49.18880494      49.50998956
C       48.53139704      50.34488610      49.86529799
C       49.53322871      51.39412946      50.31454357
C       50.88085047      51.06498847      50.09607476
C       51.27425504      49.79751666      49.73690429
C       50.33338022      48.81782331      49.43621193
H       48.11027366      48.61488923      49.41997243
H       47.53047083      50.71309323      49.81890637
H       49.20193095      52.25990551      50.77239204
H       51.62812084      51.88432651      50.23850106
H       52.38636885      49.52590042      49.73643812
H       50.69682547      47.74379777      49.22966917
