12
Lattice="100.0 0.0 0.0 0.0 100.0 0.0 0.0 0.0 100.0" Properties=species:S:1:pos:R:3 Energy=-145426.796875 Energy_pyscf=-145427.02840322148 Energy_nn=-145426.8125 pbc="F F F"
C       49.03094232      49.09175553      49.67678525
C       48.64321066      50.38378411      50.09896364
C       49.51581321      51.34928410      50.46159849
C       50.90967568      51.01192021      50.29412213
C       51.28183228      49.73322017      49.99035551
C       50.35630876      48.74488651      49.57628564
H       48.24454148      48.31054736      49.46966905
H       47.59374102      50.42418497      50.43902254
H       49.25220578      52.38208267      50.77099165
H       51.60872321      51.93006050      50.41824420
H       52.33756133      49.57176532      49.85396984
H       50.63378159      47.71316021      49.24606362
