12
Lattice="100.0 0.0 0.0 0.0 100.0 0.0 0.0 0.0 100.0" Properties=species:S:1:pos:R:3 Energy=-145424.765625 Energy_pyscf=-145422.70900150822 Energy_nn=-145424.90625 pbc="F F F"
C       48.98572010      48.96623262      49.80237504
C       48.61926827      50.25439535      50.14646384
C       49.52208893      51.29098955      50.43543929
C       50.82062592      50.93678505      50.42868172
C       51.31326214      49.75356243      49.95374079
C       50.31952572      48.71597835      49.62835537
H       48.26193320      48.25061796      49.87020021
H       47.56773356      50.45094814      50.25742516
H       49.02185524      52.19982325      50.82157065
H       51.58198411      51.67059794      50.64520479
H       52.39488312      49.50438040      49.94779605
H       50.69021766      47.75657133      49.29632468
