12
Lattice="100.0 0.0 0.0 0.0 100.0 0.0 0.0 0.0 100.0" Properties=species:S:1:pos:R:3 Energy=-145419.640625 Energy_pyscf=-145417.16209794141 Energy_nn=-145419.78125 pbc="F F F"
C       49.01388447      49.12391865      49.61116108
C       48.55906910      50.35048482      50.14218395
C       49.52529526      51.33692094      50.30215268
C       50.89672365      51.00386712      50.24053768
C       51.36112743      49.71609213      49.84457395
C       50.50472556      48.74063827      49.50805118
H       48.13856635      48.30249462      49.65544108
H       47.55805472      50.53212630      50.38603810
H       49.22526723      52.30299945      50.60854130
H       51.62091494      51.76186023      50.61902726
H       52.43891970      49.49980766      49.96244260
H       50.84283959      47.70832239      49.35342439
