12
Lattice="100.0 0.0 0.0 0.0 100.0 0.0 0.0 0.0 100.0" Properties=species:S:1:pos:R:3 Energy=-145428.453125 Energy_pyscf=-145427.4441234162 Energy_nn=-145428.4375 pbc="F F F"
C       48.99885703      49.03302715      49.75299797
C       48.65301602      50.30622149      50.15746172
C       49.56225795      51.31156330      50.47727111
C       50.93993735      50.89998929      50.40236598
C       51.30574918      49.63686564      49.99019189
C       50.41070959      48.71273754      49.61400937
H       48.22763686      48.30089113      49.39870165
H       47.62708777      50.40855580      50.22539521
H       49.22730209      52.31680881      50.67543040
H       51.64687094      51.66751426      50.62871420
H       52.37307085      49.41650554      49.83646698
H       50.61827951      47.71550204      49.27530261
