12
Lattice="100.0 0.0 0.0 0.0 100.0 0.0 0.0 0.0 100.0" Properties=species:S:1:pos:R:3 Energy=-145434.078125 Energy_pyscf=-145435.35320955506 Energy_nn=-145433.9375 pbc="F F F"
C       49.00191180      49.06275392      49.61638834
C       48.58582567      50.35548403      49.99473700
C       49.56696903      51.39172437      50.21739134
C       50.91419742      51.02237034      50.20838147
C       51.32911386      49.72980704      49.80810719
C       50.39023899      48.74518063      49.55323791
H       48.26442552      48.29131814      49.44067432
H       47.53077609      50.57692645      50.04875307
H       49.20192154      52.34507930      50.63758823
H       51.76863510      51.77049116      50.30711282
H       52.41517558      49.53679337      49.76087883
H       50.67879128      47.72447613      49.30585971
