12
Lattice="100.0 0.0 0.0 0.0 100.0 0.0 0.0 0.0 100.0" Properties=species:S:1:pos:R:3 Energy=-145436.53125 Energy_pyscf=-145434.82018734154 Energy_nn=-145436.40625 pbc="F F F"
C       48.95829668      49.16068191      49.52128282
C       48.56695666      50.43854844      49.94883778
C       49.54001458      51.39477908      50.23619536
C       50.88972131      51.07398298      50.15699513
C       51.27676979      49.79847249      49.74414940
C       50.31165366      48.83376807      49.48546224
H       48.18049647      48.46319349      49.28352983
H       47.52914195      50.67901699      49.86716187
H       49.23100240      52.32363529      50.74602872
H       51.65137785      51.88282346      50.23226552
H       52.36261334      49.52459238      49.72823954
H       50.61552754      47.79668230      49.21162433
