12
Lattice="100.0 0.0 0.0 0.0 100.0 0.0 0.0 0.0 100.0" Properties=species:S:1:pos:R:3 Energy=-145431.859375 Energy_pyscf=-145431.46690178322 Energy_nn=-145431.84375 pbc="F F F"
C       49.06997816      48.99909626      49.71475506
C       48.63288624      50.27647500      50.14408881
C       49.54922216      51.29445847      50.43408090
C       50.94946051      50.97510948      50.40273403
C       51.34391762      49.66936407      49.96120898
C       50.42662983      48.74838204      49.68211152
H       48.27646195      48.28761244      49.55620369
H       47.53118248      50.50808134      50.13113626
H       49.18312389      52.31139847      50.80252088
H       51.64346558      51.79582568      50.62487420
H       52.40459967      49.42320466      49.98473617
H       50.77219459      47.74963719      49.27176374
