12
Lattice="100.0 0.0 0.0 0.0 100.0 0.0 0.0 0.0 100.0" Properties=species:S:1:pos:R:3 Energy=-145429.484375 Energy_pyscf=-145430.62950100066 Energy_nn=-145429.875 pbc="F F F"
C       48.98669181      49.04920453      49.65164548
C       48.66359457      50.28799456      50.16934111
C       49.56136424      51.36249096      50.40822725
C       50.87085769      51.03090392      50.31111042
C       51.30153086      49.73933517      49.92711924
C       50.39592678      48.74279113      49.61546374
H       48.23529768      48.24000924      49.55202461
H       47.58445285      50.50079462      50.24189094
H       49.15460266      52.28604159      50.81000086
H       51.67346438      51.77911474      50.59592611
H       52.32731656      49.48902913      49.89721981
H       50.65296019      47.69028252      49.31821132
