12
Lattice="100.0 0.0 0.0 0.0 100.0 0.0 0.0 0.0 100.0" Properties=species:S:1:pos:R:3 Energy=-145418.828125 Energy_pyscf=-145417.88085065194 Energy_nn=-145419.09375 pbc="F F F"
C       48.96736504      49.04307761      49.70095925
C       48.67336374      50.35073860      49.96647134
C       49.59531234      51.30845612      50.35473841
C       50.93885401      51.06521651      50.24957474
C       51.31058862      49.63233719      49.89292195
C       50.36432968      48.67795386      49.55381880
H       48.22549508      48.27138741      49.60647284
H       47.57518263      50.40076203      50.08796743
H       49.21845798      52.24426305      50.83515847
H       51.65476527      51.75420360      50.84303225
H       52.36480883      49.26824681      49.86708882
H       50.63525726      47.73259642      49.25908232
