12
Lattice="100.0 0.0 0.0 0.0 100.0 0.0 0.0 0.0 100.0" Properties=species:S:1:pos:R:3 Energy=-145427.1875 Energy_pyscf=-145424.90388790204 Energy_nn=-145426.8125 pbc="F F F"
C       49.01810214      49.00220760      49.78257207
C       48.61905997      50.35897387      50.18505741
C       49.54731463      51.23335669      50.56224838
C       50.95853624      51.02782538      50.36792833
C       51.34236942      49.72065548      50.05644470
C       50.36616521      48.73639881      49.64552032
H       48.26333265      48.32115454      49.36753175
H       47.50186149      50.52630523      50.29456880
H       49.11596013      52.19815445      50.74610521
H       51.71689655      51.86516704      50.28930976
H       52.42153559      49.53430747      49.89098149
H       50.67018776      47.73958401      49.25701459
