12
Lattice="100.0 0.0 0.0 0.0 100.0 0.0 0.0 0.0 100.0" Properties=species:S:1:pos:R:3 Energy=-145429.921875 Energy_pyscf=-145426.44277316311 Energy_nn=-145429.96875 pbc="F F F"
C       49.07173967      49.10295061      49.59876480
C       48.61961258      50.34562835      49.99610400
C       49.52574101      51.36003167      50.24675202
C       50.96289439      50.97307708      50.13092622
C       51.33084615      49.70468944      49.77915736
C       50.39562357      48.75042654      49.59492827
H       48.23900550      48.36407745      49.49221395
H       47.56946601      50.61625903      49.96025098
H       49.15291930      52.29881140      50.69954143
H       51.67112583      51.76770272      50.25451309
H       52.42032383      49.54884964      49.78629524
H       50.64874260      47.70669829      49.28218603
