12
Lattice="100.0 0.0 0.0 0.0 100.0 0.0 0.0 0.0 100.0" Properties=species:S:1:pos:R:3 Energy=-145430.40625 Energy_pyscf=-145420.86212991757 Energy_nn=-145430.3125 pbc="F F F"
C       49.08645756      49.09175417      49.59153563
C       48.62259059      50.34348550      50.02204512
C       49.50306420      51.35960548      50.25834889
C       50.96549877      50.97534379      50.13801488
C       51.31191671      49.69708896      49.78751237
C       50.40038139      48.75160817      49.59745861
H       48.24454447      48.37561671      49.46817981
H       47.58862013      50.59047240      49.99051366
H       49.17767063      52.28483132      50.67665884
H       51.67762327      51.75901535      50.21883653
H       52.40931855      49.54799384      49.83011077
H       50.66240120      47.73241934      49.27085028
