12
Lattice="100.0 0.0 0.0 0.0 100.0 0.0 0.0 0.0 100.0" Properties=species:S:1:pos:R:3 Energy=-145436.140625 Energy_pyscf=-145436.2642649389 Energy_nn=-145436.109375 pbc="F F F"
C       49.08048833      48.95413316      49.72291842
C       48.68269876      50.22104929      50.16071286
C       49.62870202      51.20405461      50.46469752
C       51.00069656      50.91399760      50.36090899
C       51.40630668      49.62925881      49.96330424
C       50.45969220      48.64850957      49.62225088
H       48.32920928      48.21571796      49.37847103
H       47.60400328      50.44070735      50.30508846
H       49.31583606      52.21814321      50.78262003
H       51.73861882      51.67583379      50.61513708
H       52.39387265      49.31153660      50.05384606
H       50.71473103      47.67323533      49.20234476
