12
Lattice="100.0 0.0 0.0 0.0 100.0 0.0 0.0 0.0 100.0" Properties=species:S:1:pos:R:3 Energy=-145427.265625 Energy_pyscf=-145424.18274599494 Energy_nn=-145427.25 pbc="F F F"
C       49.01811284      48.88794361      49.82813839
C       48.63112887      50.13091960      50.39770551
C       49.54421464      51.14619431      50.56757490
C       51.00034607      50.90030413      50.51441179
C       51.32435360      49.54172809      50.22276552
C       50.32450416      48.59386431      49.73339851
H       48.24578341      48.17005834      49.55645171
H       47.56763556      50.36747036      50.45850195
H       49.21395083      52.15275449      50.80560718
H       51.78382029      51.55277656      50.90329952
H       52.34749082      49.28490965      50.18041382
H       50.71055083      47.75278273      49.08002725
