12
Lattice="100.0 0.0 0.0 0.0 100.0 0.0 0.0 0.0 100.0" Properties=species:S:1:pos:R:3 Energy=-145416.8125 Energy_pyscf=-145416.2938147875 Energy_nn=-145417.03125 pbc="F F F"
C       49.10309310      48.93824497      49.77064136
C       48.69674563      50.29362453      50.13420007
C       49.64488935      51.26271786      50.42441739
C       51.00506336      50.97308757      50.32323098
C       51.31482965      49.65779229      49.92509551
C       50.48429379      48.70533794      49.53831790
H       48.43069172      48.37313952      49.12171154
H       47.64498437      50.53020698      50.14948928
H       49.30884190      52.24125067      50.69380811
H       51.72572473      51.75773513      50.54138675
H       52.27858599      49.21242692      49.80931630
H       50.82037686      47.78425150      49.17447533
