12
Lattice="100.0 0.0 0.0 0.0 100.0 0.0 0.0 0.0 100.0" Properties=species:S:1:pos:R:3 Energy=-145434.53125 Energy_pyscf=-145433.87091525792 Energy_nn=-145434.71875 pbc="F F F"
C       49.02989370      49.00811383      49.74333364
C       48.62198710      50.28394979      50.18612431
C       49.54866035      51.25899023      50.54591728
C       50.96345514      50.87385485      50.46408174
C       51.33857032      49.62085049      50.00967958
C       50.39340276      48.65996286      49.67137016
H       48.25884635      48.26626363      49.53543474
H       47.55215132      50.54269657      50.16840288
H       49.25222412      52.23099585      50.82862613
H       51.71716712      51.64441922      50.61040445
H       52.41936636      49.24816960      50.00504313
H       50.74119254      47.69693830      49.24280426
