12
Lattice="100.0 0.0 0.0 0.0 100.0 0.0 0.0 0.0 100.0" Properties=species:S:1:pos:R:3 Energy=-145435.015625 Energy_pyscf=-145436.74532711922 Energy_nn=-145434.90625 pbc="F F F"
C       49.01202664      49.04123663      49.69911401
C       48.58915236      50.33950520      50.07719556
C       49.54899650      51.31423146      50.40722133
C       50.91381529      51.01095232      50.34161268
C       51.32937631      49.72613294      49.96677918
C       50.38577552      48.75431594      49.62340533
H       48.24464662      48.31235162      49.40350218
H       47.54177138      50.45072736      50.24704528
H       49.19628409      52.34018764      50.56045143
H       51.66459790      51.78126476      50.65458380
H       52.42885014      49.47324326      49.96278763
H       50.71215335      47.73884181      49.27509272
