12
Lattice="100.0 0.0 0.0 0.0 100.0 0.0 0.0 0.0 100.0" Properties=species:S:1:pos:R:3 Energy=-145427.515625 Energy_pyscf=-145426.50362205805 Energy_nn=-145427.5625 pbc="F F F"
C       49.02629321      48.89812444      49.92024443
C       48.57975881      50.15395293      50.39512477
C       49.56344439      51.12382845      50.55696055
C       50.94293840      50.83609796      50.55276013
C       51.36316237      49.59658917      50.20354105
C       50.35925048      48.61418782      49.72938059
H       48.32960361      48.19180585      49.59076195
H       47.51344760      50.42147516      50.39947342
H       49.25835170      52.08853292      50.80460614
H       51.69749954      51.54126097      50.89560051
H       52.40778582      49.22698013      50.13517782
H       50.67152020      47.76356462      49.08745154
