12
Lattice="100.0 0.0 0.0 0.0 100.0 0.0 0.0 0.0 100.0" Properties=species:S:1:pos:R:3 Energy=-145425.890625 Energy_pyscf=-145427.6035056636 Energy_nn=-145425.953125 pbc="F F F"
C       49.00176985      49.13312299      49.56452146
C       48.55709171      50.37597048      49.97636678
C       49.58342672      51.29561139      50.29220885
C       50.91539781      51.11402888      50.13600015
C       51.35119814      49.79748302      49.79785033
C       50.37662148      48.87527841      49.49056892
H       48.25670901      48.32899717      49.40796566
H       47.43972508      50.58167549      50.05933613
H       49.06075152      52.19887347      50.57121253
H       51.60380741      51.92921376      50.24375094
H       52.40933591      49.60410229      49.84811476
H       50.65272322      47.83552828      49.34274886
