12
Lattice="100.0 0.0 0.0 0.0 100.0 0.0 0.0 0.0 100.0" Properties=species:S:1:pos:R:3 Energy=-145431.546875 Energy_pyscf=-145425.2673113154 Energy_nn=-145431.625 pbc="F F F"
C       48.96690053      49.14347365      49.50859122
C       48.59871701      50.45495031      49.93766311
C       49.56362415      51.38412881      50.25326538
C       50.85657489      51.05624290      50.15644335
C       51.28100813      49.85735400      49.73486796
C       50.29009332      48.77296591      49.50786700
H       48.21168426      48.39211812      49.36001798
H       47.53247983      50.69126168      49.86870708
H       49.19779720      52.35311959      50.70844846
H       51.70247091      51.83018589      50.26981984
H       52.33096974      49.57411778      49.72830441
H       50.57259155      47.80020369      49.13752173
