12
Lattice="100.0 0.0 0.0 0.0 100.0 0.0 0.0 0.0 100.0" Properties=species:S:1:pos:R:3 Energy=-145431.9375 Energy_pyscf=-145427.85303809698 Energy_nn=-145432.046875 pbc="F F F"
C       49.01628433      49.06265148      49.64284815
C       48.58439702      50.28616843      50.10506833
C       49.64890318      51.28455155      50.38891187
C       50.94401678      50.93511217      50.41820710
C       51.35380566      49.73448587      49.89611569
C       50.39300908      48.78916157      49.58188558
H       48.32684695      48.26009976      49.42372139
H       47.56996493      50.60494909      50.07451931
H       49.29111858      52.22825045      50.79327913
H       51.65738260      51.78158518      50.68317713
H       52.40979752      49.36150642      49.88078558
H       50.67110854      47.82428920      49.15826558
