12
Lattice="100.0 0.0 0.0 0.0 100.0 0.0 0.0 0.0 100.0" Properties=species:S:1:pos:R:3 Energy=-145433.1875 Energy_pyscf=-145435.693046436 Energy_nn=-145433.21875 pbc="F F F"
C       48.98222097      48.97870820      49.84061061
C       48.56091353      50.26522328      50.19768312
C       49.50442838      51.25317924      50.45489845
C       50.84573518      50.96937642      50.36846923
C       51.30306581      49.72303252      49.97066271
C       50.36302050      48.70424565      49.65472159
H       48.28567033      48.14837731      49.76881284
H       47.48009296      50.44430201      50.30955611
H       49.14606056      52.27041803      50.76716522
H       51.61334015      51.74986505      50.69865289
H       52.36418593      49.48720882      49.93387733
H       50.68626170      47.77432325      49.28329802
