12
Lattice="100.0 0.0 0.0 0.0 100.0 0.0 0.0 0.0 100.0" Properties=species:S:1:pos:R:3 Energy=-145422.515625 Energy_pyscf=-145416.06023280483 Energy_nn=-145422.578125 pbc="F F F"
C       49.05267333      49.02824649      49.76546669
C       48.69057402      50.28231769      50.17382786
C       49.56660331      51.31005749      50.34777417
C       50.89775086      50.98485934      50.38540381
C       51.35813884      49.60726284      49.97715750
C       50.35699797      48.76457767      49.52874137
H       48.27081995      48.43655939      49.32701616
H       47.63100375      50.49053751      50.21416975
H       49.20736046      52.29639870      50.53352452
H       51.75124002      51.69234219      50.61027782
H       52.33611766      49.44002185      49.68542838
H       50.76454721      47.81687971      49.26179284
