12
Lattice="100.0 0.0 0.0 0.0 100.0 0.0 0.0 0.0 100.0" Properties=species:S:1:pos:R:3 Energy=-145436.03125 Energy_pyscf=-145437.03146446694 Energy_nn=-145436.34375 pbc="F F F"
C       49.04310510      48.99671954      49.63030478
C       48.65415365      50.28220657      50.04772849
C       49.64205721      51.23657529      50.38117689
C       51.00768293      50.88821447      50.30578572
C       51.39541433      49.59098388      49.88389139
C       50.40004539      48.64070468      49.57040375
H       48.30177677      48.22317687      49.45758904
H       47.58210113      50.55059991      50.11819175
H       49.33496766      52.25492510      50.70916718
H       51.78183091      51.62111661      50.61087514
H       52.46621452      49.31646298      49.76475347
H       50.78629684      47.75448460      49.13508293
