12
Lattice="100.0 0.0 0.0 0.0 100.0 0.0 0.0 0.0 100.0" Properties=species:S:1:pos:R:3 Energy=-145436.28125 Energy_pyscf=-145436.79868620247 Energy_nn=-145436.28125 pbc="F F F"
C       49.02036139      49.08167237      49.64617265
C       48.57249367      50.37113627      50.00172832
C       49.54619984      51.35660417      50.29234584
C       50.90448332      51.03279393      50.22153833
C       51.35556936      49.74606769      49.87905422
C       50.38901015      48.75946803      49.57347642
H       48.28458149      48.32266120      49.36014848
H       47.48613621      50.62265078      50.06341365
H       49.11233615      52.26738591      50.67160077
H       51.60956752      51.77912062      50.54372334
H       52.42569997      49.50772681      49.79338323
H       50.74597208      47.76494245      49.26354114
