12
Lattice="100.0 0.0 0.0 0.0 100.0 0.0 0.0 0.0 100.0" Properties=species:S:1:pos:R:3 Energy=-145423.609375 Energy_pyscf=-145421.93431710795 Energy_nn=-145423.984375 pbc="F F F"
C       48.99416790      48.88880448      49.88550206
C       48.65363300      50.13270655      50.42714572
C       49.57744337      51.15565249      50.57132903
C       50.91926414      50.83643800      50.53668635
C       51.38992057      49.59494767      50.18252734
C       50.35258540      48.61557834      49.70877421
H       48.29884965      48.16824128      49.57726077
H       47.62858420      50.43821922      50.39988180
H       49.17559015      52.12470552      50.82921775
H       51.66150628      51.51572406      50.86038165
H       52.46981842      49.21978969      50.19542105
H       50.62598560      47.81274261      49.07778592
