12
Lattice="100.0 0.0 0.0 0.0 100.0 0.0 0.0 0.0 100.0" Properties=species:S:1:pos:R:3 Energy=-145432.75 Energy_pyscf=-145435.02752611268 Energy_nn=-145432.640625 pbc="F F F"
C       48.98113860      49.05694947      49.58951738
C       48.56104273      50.37550731      49.97405132
C       49.52808513      51.32817666      50.31206615
C       50.88141282      51.02767505      50.22390542
C       51.29037205      49.75508052      49.81846313
C       50.35848759      48.77457753      49.53748721
H       48.26056002      48.32386981      49.36587567
H       47.53037466      50.63566256      49.90256708
H       49.18870408      52.31781656      50.74994727
H       51.64175555      51.80915093      50.47034834
H       52.38988123      49.54636317      49.65266399
H       50.68449200      47.70776640      49.33966862
