12
Lattice="100.0 0.0 0.0 0.0 100.0 0.0 0.0 0.0 100.0" Properties=species:S:1:pos:R:3 Energy=-145423.59375 Energy_pyscf=-145424.92409656 Energy_nn=-145423.78125 pbc="F F F"
C       48.99917874      49.14747916      49.59626316
C       48.63511386      50.37422717      50.11344812
C       49.51935127      51.37670476      50.43375474
C       50.87142014      50.99955547      50.28306827
C       51.31004875      49.72545322      49.86872704
C       50.37541123      48.76359728      49.60789071
H       48.30689358      48.27362346      49.47505949
H       47.64993204      50.43019108      50.44694796
H       49.24412348      52.39253106      50.78094922
H       51.53632352      51.81235321      50.50884849
H       52.36710867      49.61215936      49.80705327
H       50.57971224      47.69843026      49.39475662
