12
Lattice="100.0 0.0 0.0 0.0 100.0 0.0 0.0 0.0 100.0" Properties=species:S:1:pos:R:3 Energy=-145423.96875 Energy_pyscf=-145423.83456446 Energy_nn=-145424.078125 pbc="F F F"
C       49.01035007      49.10992150      49.68459130
C       48.59070550      50.32007105      50.22342342
C       49.49252312      51.35581349      50.43186472
C       50.90992398      51.04027465      50.25976385
C       51.28939022      49.73420689      49.94547347
C       50.38301237      48.70772985      49.52586256
H       48.25809425      48.44061187      49.39715349
H       47.53570120      50.37751651      50.45024574
H       49.30491348      52.35093198      50.71248249
H       51.62040239      51.93252280      50.47724155
H       52.34057161      49.60364551      49.84918066
H       50.63863576      47.67812310      49.35936141
