12
Lattice="100.0 0.0 0.0 0.0 100.0 0.0 0.0 0.0 100.0" Properties=species:S:1:pos:R:3 Energy=-145427.125 Energy_pyscf=-145426.1460409774 Energy_nn=-145427.484375 pbc="F F F"
C       48.99388133      49.18236165      49.49606455
C       48.53966884      50.39677350      49.95475580
C       49.52608845      51.31313849      50.28988681
C       50.89880758      51.08579792      50.15791409
C       51.34953138      49.85068298      49.81458228
C       50.32258256      48.83132966      49.50942343
H       48.33119844      48.34125985      49.33805365
H       47.45975506      50.58861225      50.11273384
H       49.10835201      52.25048182      50.63215838
H       51.57251573      51.90860845      50.14518282
H       52.40521176      49.53877412      49.83876547
H       50.74811493      47.78129705      49.38601711
