12
Lattice="100.0 0.0 0.0 0.0 100.0 0.0 0.0 0.0 100.0" Properties=species:S:1:pos:R:3 Energy=-145428.578125 Energy_pyscf=-145418.2282615138 Energy_nn=-145428.6875 pbc="F F F"
C       49.09506533      49.11764274      49.56114599
C       48.60714302      50.34809734      50.01376039
C       49.57394487      51.32658886      50.31411035
C       50.89727015      51.03333467      50.04876389
C       51.32721318      49.65514991      49.74149967
C       50.42879185      48.78846441      49.48004479
H       48.30517300      48.42318001      49.29250805
H       47.58500066      50.45713309      50.35796766
H       49.26616445      52.27732414      50.64215012
H       51.57724006      51.84239004      50.35159813
H       52.41326573      49.49053275      49.77453979
H       50.66477456      47.69768357      49.37194486
