12
Lattice="100.0 0.0 0.0 0.0 100.0 0.0 0.0 0.0 100.0" Properties=species:S:1:pos:R:3 Energy=-145430.8125 Energy_pyscf=-145427.34031726627 Energy_nn=-145430.859375 pbc="F F F"
C       49.11359362      48.91065474      49.65059855
C       48.65429538      50.20711445      50.19670989
C       49.64947255      51.24790787      50.46960157
C       51.01482826      50.88852576      50.38314538
C       51.36774639      49.59445756      50.01075216
C       50.42356237      48.65893102      49.62380744
H       48.37678161      48.18435740      49.37522355
H       47.62046899      50.43086309      50.31033616
H       49.30116561      52.26159101      50.83643680
H       51.73439935      51.68593356      50.51679081
H       52.42426596      49.29987813      50.10820095
H       50.66922445      47.70988440      49.18413611
