12
Lattice="100.0 0.0 0.0 0.0 100.0 0.0 0.0 0.0 100.0" Properties=species:S:1:pos:R:3 Energy=-145438.734375 Energy_pyscf=-145428.20350323274 Energy_nn=-145438.796875 pbc="F F F"
C       49.05164856      49.09149871      49.57004574
C       48.54275708      50.39059139      49.95187081
C       49.57130403      51.33130363      50.24972534
C       50.92895248      51.01142937      50.19640604
C       51.38232542      49.74987089      49.77558944
C       50.35414515      48.81201093      49.47261125
H       48.28402075      48.27576477      49.49400967
H       47.52811800      50.55180871      50.09945272
H       49.22425764      52.26169138      50.58386667
H       51.61950361      51.81504658      50.55513826
H       52.44236987      49.41010045      49.72431440
H       50.70396493      47.74177758      49.26852366
