12
Lattice="100.0 0.0 0.0 0.0 100.0 0.0 0.0 0.0 100.0" Properties=species:S:1:pos:R:3 Energy=-145424.0 Energy_pyscf=-145420.42838711885 Energy_nn=-145424.109375 pbc="F F F"
C       49.04337902      48.97731566      49.82336113
C       48.63797201      50.27965870      50.26828282
C       49.66209780      51.19387812      50.37662706
C       51.10151807      50.86950078      50.29311160
C       51.43363193      49.56357250      50.09263136
C       50.47316004      48.70073674      49.58879508
H       48.37732777      48.20101165      49.26755843
H       47.59664356      50.55568268      50.49196528
H       49.46629713      52.26675584      50.60402608
H       51.81429206      51.60422439      50.62613480
H       52.49890410      49.27416267      50.01543147
H       50.73971066      47.71053180      49.28936935
