12
Lattice="100.0 0.0 0.0 0.0 100.0 0.0 0.0 0.0 100.0" Properties=species:S:1:pos:R:3 Energy=-259792.78125 Energy_pyscf=-259788.14971006042 Energy_nn=-259795.578125 pbc="F F F"
C       51.43018959      50.42771906      49.79867394
C       51.30915501      49.05291593      50.01692283
N       50.04036487      48.58607628      49.99471839
C       48.74634903      49.42209712      50.05914324
N       49.00867177      50.71917211      49.99865174
C       50.35324389      51.28236905      49.94887462
O       47.67918532      48.81663719      50.35947139
O       50.54205986      52.54403245      50.06549416
H       51.92630601      48.42510592      50.55717449
H       50.00432562      47.61152520      50.33648561
H       48.45926422      51.33767153      49.51779102
H       52.39851409      50.98021144      49.88949726
