12
Lattice="100.0 0.0 0.0 0.0 100.0 0.0 0.0 0.0 100.0" Properties=species:S:1:pos:R:3 Energy=-259801.515625 Energy_pyscf=-259806.59172270374 Energy_nn=-259801.25 pbc="F F F"
C       51.41939673      50.25368600      49.98747168
C       51.10674167      48.92298499      49.99079216
N       49.71874526      48.47223746      50.06534330
C       48.63465021      49.25193775      50.13689336
N       48.99105394      50.65728116      50.30973748
C       50.23275932      51.29564265      49.88508437
O       47.52804938      48.65241359      50.05575984
O       50.24415215      52.41703872      49.53911322
H       51.89234351      48.08997561      49.93720439
H       49.60767019      47.48403422      49.72956223
H       48.18399043      51.21605525      50.46943663
H       52.43192309      50.54339527      49.65371663
