12
Lattice="100.0 0.0 0.0 0.0 100.0 0.0 0.0 0.0 100.0" Properties=species:S:1:pos:R:3 Energy=-259805.375 Energy_pyscf=-259801.88240132842 pbc="F F F"
C       51.31889173      50.35050688      49.78949245
C       51.09958009      48.98840041      49.93406963
N       49.74438687      48.44023921      50.22614156
C       48.54641336      49.22110378      50.06962553
N       48.89284354      50.66523781      49.75638325
C       50.25270849      51.31385483      49.83319760
O       47.37922318      48.87135481      50.19446893
O       50.35966551      52.48614912      50.05511055
H       51.84467157      48.33480724      50.45285658
H       49.60049411      47.50139221      50.44389591
H       48.23255127      51.33149408      50.11172687
H       52.30878303      50.63352215      49.62351787
