12
Lattice="100.0 0.0 0.0 0.0 100.0 0.0 0.0 0.0 100.0" Properties=species:S:1:pos:R:3 Energy=-259826.328125 Energy_pyscf=-259824.28794310192 Energy_nn=-259823.96875 pbc="F F F"
C       51.31592256      50.22453489      49.97058556
C       51.01864385      48.92237214      49.96070392
N       49.74363132      48.39229751      50.15519799
C       48.64914306      49.26105983      50.06948872
N       48.91074397      50.59558682      49.96301118
C       50.20737560      51.18492287      49.95347552
O       47.52726090      48.81070973      50.16244334
O       50.38076621      52.42219854      49.83336733
H       51.84847472      48.19124698      49.76358195
H       49.47401026      47.42624207      50.12034788
H       48.12776580      51.22461771      49.75451337
H       52.35327319      50.57937977      49.86758329
