12
Lattice="100.0 0.0 0.0 0.0 100.0 0.0 0.0 0.0 100.0" Properties=species:S:1:pos:R:3 Energy=-259809.21875 Energy_pyscf=-259805.28691831886 Energy_nn=-259810.109375 pbc="F F F"
C       51.42460584      50.35674899      50.06244566
C       51.08382916      49.07209509      49.90014681
N       49.87233837      48.49509708      50.14781007
C       48.64152764      49.19750124      50.02363702
N       48.93019867      50.54379760      49.82231961
C       50.23898891      51.25895133      49.96710183
O       47.44789001      48.83191194      50.26897640
O       50.22561769      52.44406105      49.80770651
H       51.82021380      48.19466721      49.71805950
H       49.77922547      47.49034878      50.30798871
H       48.15923872      51.10425776      50.19715697
H       52.48327483      50.63428943      50.18095427
