12
Lattice="100.0 0.0 0.0 0.0 100.0 0.0 0.0 0.0 100.0" Properties=species:S:1:pos:R:3 Energy=-259797.96875 Energy_pyscf=-259795.39023286974 Energy_nn=-259798.84375 pbc="F F F"
C       51.37359235      50.30399219      50.20161893
C       51.12877154      49.01003986      49.82436935
N       49.81539160      48.45628145      49.74330456
C       48.75946351      49.35863339      50.17798631
N       49.04680032      50.68518972      50.09031868
C       50.22525711      51.34814128      49.85930154
O       47.63719552      48.96623606      50.35783074
O       50.11612420      52.47851675      49.56557896
H       51.88778815      48.27195361      50.12481136
H       49.69893718      47.54321401      50.04481966
H       48.17442496      51.23773193      50.33738036
H       52.29277114      50.76061146      50.47203576
