12
Lattice="100.0 0.0 0.0 0.0 100.0 0.0 0.0 0.0 100.0" Properties=species:S:1:pos:R:3 Energy=-259808.734375 Energy_pyscf=-259804.01591321515 pbc="F F F"
C       51.39750146      50.32475469      49.79727939
C       51.08442882      48.95253557      49.89983447
N       49.77543712      48.53802533      49.89904020
C       48.59480528      49.28090167      49.95724177
N       48.99209326      50.60642782      50.19671233
C       50.14446370      51.20734421      49.78709346
O       47.52552889      48.83630012      50.13406001
O       50.25837888      52.36746967      49.47420510
H       51.79963411      48.12518728      49.90338282
H       49.45298977      47.52167975      50.15073717
H       48.28881735      51.27762070      50.03357960
H       52.33680790      50.81939705      50.05876027
