12
Lattice="100.0 0.0 0.0 0.0 100.0 0.0 0.0 0.0 100.0" Properties=species:S:1:pos:R:3 Energy=-259803.171875 Energy_pyscf=-259795.96782562457 Energy_nn=-259804.78125 pbc="F F F"
C       51.36589184      50.21422002      49.60803123
C       51.13685580      48.92128077      49.93690291
N       49.93599724      48.44529849      50.44616959
C       48.83676481      49.12612922      50.11192482
N       49.13357089      50.47393243      49.63654896
C       50.31095690      51.14985075      49.80626044
O       47.63174536      48.69195168      49.91260124
O       50.44292642      52.37266279      49.77620420
H       51.79268823      48.01239073      50.00804193
H       49.81803267      47.51980770      50.70844642
H       48.42072917      51.08350377      49.94888326
H       52.35488071      50.53683211      49.35895818
