12
Lattice="100.0 0.0 0.0 0.0 100.0 0.0 0.0 0.0 100.0" Properties=species:S:1:pos:R:3 Energy=-259794.75 Energy_pyscf=-259786.73120293432 Energy_nn=-259796.53125 pbc="F F F"
C       51.37863898      50.29201850      49.88432810
C       51.10857911      48.96387133      50.11360874
N       49.88500637      48.46397801      50.11043118
C       48.72807270      49.22307642      50.30343944
N       48.92675002      50.69329490      50.23731621
C       50.14906653      51.13061258      49.79548096
O       47.63082670      48.83022173      50.07662467
O       50.30173316      52.36163930      49.70117081
H       51.77108094      48.12943209      50.11770423
H       49.72010763      47.39639136      49.90017617
H       48.11810012      51.18850917      50.20011755
H       52.33717926      50.55243646      50.19339512
