12
Lattice="100.0 0.0 0.0 0.0 100.0 0.0 0.0 0.0 100.0" Properties=species:S:1:pos:R:3 Energy=-259803.921875 Energy_pyscf=-259799.97516865327 Energy_nn=-259804.0 pbc="F F F"
C       51.51779461      50.45958630      49.89349281
C       51.35051089      49.10169586      49.93265830
N       49.99014033      48.60824535      50.14547272
C       48.78537896      49.35807240      49.96592786
N       49.15418256      50.70436646      49.86043514
C       50.35473137      51.28243505      49.99412113
O       47.65780120      48.83544215      50.26230845
O       50.43929191      52.50696164      49.90166555
H       52.13468252      48.36556072      50.43731533
H       49.73677836      47.67578171      50.43027715
H       48.29909631      51.33814883      49.76961933
H       52.45926189      51.00289868      49.96430844
