12
Lattice="100.0 0.0 0.0 0.0 100.0 0.0 0.0 0.0 100.0" Properties=species:S:1:pos:R:3 Energy=-259819.984375 Energy_pyscf=-259822.03313129462 Energy_nn=-259819.875 pbc="F F F"
C       51.48364392      50.41897636      49.95685244
C       51.21225327      49.05928789      50.08008072
N       49.96394841      48.49434352      50.15552702
C       48.73680288      49.30405365      50.07547909
N       49.05617260      50.65036785      50.10406721
C       50.36674251      51.34220177      49.93180377
O       47.61927256      48.80690306      50.04559337
O       50.33665112      52.55296536      49.77381142
H       52.07483445      48.33932096      50.17169538
H       49.97183789      47.47547733      50.42594980
H       48.37379023      51.36543666      49.91626116
H       52.46710462      50.85642210      49.66471480
