12
Lattice="100.0 0.0 0.0 0.0 100.0 0.0 0.0 0.0 100.0" Properties=species:S:1:pos:R:3 Energy=-259818.28125 Energy_pyscf=-259813.70738660335 pbc="F F F"
C       51.31891918      50.26683606      50.05814481
C       51.11313218      48.86243324      50.18970971
N       49.80769242      48.39433559      50.27611288
C       48.70413842      49.19019187      50.24994447
N       49.04775246      50.57487147      49.87564388
C       50.26645177      51.26573002      49.88313532
O       47.54983418      48.84532392      50.42207677
O       50.34335189      52.44267941      49.89871168
H       51.84136889      48.08024747      50.06841537
H       49.54385903      47.38803828      50.15083728
H       48.22996368      51.16850420      49.68705424
H       52.30264133      50.67419350      50.31030768
