12
Lattice="100.0 0.0 0.0 0.0 100.0 0.0 0.0 0.0 100.0" Properties=species:S:1:pos:R:3 Energy=-259826.796875 Energy_pyscf=-259825.34835978894 Energy_nn=-259825.796875 pbc="F F F"
C       51.33608214      50.37253528      50.12748296
C       51.10549069      49.04487445      50.05770633
N       49.83754296      48.49796665      50.03897155
C       48.69905079      49.29417768      50.12145536
N       48.98410945      50.63985592      50.10972701
C       50.27388042      51.28221485      49.93500890
O       47.53486316      48.89203032      50.21117024
O       50.32159700      52.47703889      49.78361033
H       51.91727579      48.35534522      49.97565892
H       49.70024427      47.50627466      50.04309985
H       48.13448566      51.24578115      50.19822522
H       52.33701319      50.82566246      50.20232785
