12
Lattice="100.0 0.0 0.0 0.0 100.0 0.0 0.0 0.0 100.0" Properties=species:S:1:pos:R:3 Energy=-259799.046875 Energy_pyscf=-259794.06077382053 Energy_nn=-259799.359375 pbc="F F F"
C       51.21411381      50.31053719      49.95788775
C       51.00676938      49.03640959      50.11682561
N       49.81928011      48.42275067      49.85967349
C       48.70546742      49.39260812      50.19659295
N       48.93932936      50.62282187      49.63367057
C       50.15699852      51.29271096      49.71962201
O       47.66927267      48.86395816      50.69046190
O       50.32751532      52.47068399      49.85083142
H       51.88486508      48.41417779      50.25449941
H       49.40079458      47.50426703      50.14717388
H       48.21580275      51.28721160      49.95120059
H       52.25382066      50.49947947      50.04775017
