12
Lattice="100.0 0.0 0.0 0.0 100.0 0.0 0.0 0.0 100.0" Properties=species:S:1:pos:R:3 Energy=-259787.25 Energy_pyscf=-259785.73755882363 Energy_nn=-259793.328125 pbc="F F F"
C       51.26887843      50.25980225      49.99173864
C       51.01739041      48.82887381      50.05478314
N       49.76025942      48.37083232      50.18053669
C       48.74557503      49.37979700      50.20207549
N       48.99171271      50.51199518      49.58354708
C       50.22037126      51.13170434      49.77629454
O       47.53500515      49.14423460      50.59077792
O       50.29716559      52.27581849      50.20814445
H       51.84300319      48.03901397      50.17707547
H       49.41192800      47.60765973      50.61488939
H       48.05029381      51.03585678      49.48005936
H       52.25437723      50.62836835      50.13946084
