12
Lattice="100.0 0.0 0.0 0.0 100.0 0.0 0.0 0.0 100.0" Properties=species:S:1:pos:R:3 Energy=-259792.609375 Energy_pyscf=-259796.2318980032 Energy_nn=-259796.28125 pbc="F F F"
C       51.29805016      50.29869945      50.16420522
C       51.11685200      48.99539973      49.93301739
N       49.79168053      48.38080802      49.77547473
C       48.75622790      49.20798200      50.03965225
N       49.02871037      50.55655276      49.88441876
C       50.24368354      51.15494329      49.91898868
O       47.61062116      48.98851955      50.57635272
O       50.25041987      52.39967960      49.90465951
H       51.85061455      48.28880938      49.72796062
H       49.65639938      47.57542993      50.34478267
H       48.13952101      51.03355314      49.93334728
H       52.34521128      50.75569807      50.22838934
