12
Lattice="100.0 0.0 0.0 0.0 100.0 0.0 0.0 0.0 100.0" Properties=species:S:1:pos:R:3 Energy=-259823.640625 Energy_pyscf=-259825.72100403183 Energy_nn=-259824.140625 pbc="F F F"
C       51.34919772      50.27728701      49.95066791
C       51.11550837      48.93830896      50.03818257
N       49.78541996      48.43203930      50.11108462
C       48.64290454      49.23251863      50.19818212
N       48.96371921      50.58753733      50.12404270
C       50.23665440      51.22805177      49.90651618
O       47.51969697      48.72561771      50.13143780
O       50.37323308      52.42977581      49.83124048
H       51.87732150      48.13606227      50.17395974
H       49.65434325      47.43193078      50.00513311
H       48.16108238      51.17048297      50.14967669
H       52.35930487      50.68677779      50.04848007
