12
Lattice="100.0 0.0 0.0 0.0 100.0 0.0 0.0 0.0 100.0" Properties=species:S:1:pos:R:3 Energy=-259792.40625 Energy_pyscf=-259799.91645025843 Energy_nn=-259797.171875 pbc="F F F"
C       51.33637858      50.17116436      49.99520214
C       51.05958914      48.86315733      50.25773074
N       49.77734282      48.45521016      50.24709683
C       48.69020862      49.33146670      50.18335478
N       48.98534884      50.59172503      49.59421886
C       50.20958085      51.15266379      49.91880160
O       47.60768597      48.86299953      50.53228921
O       50.28511761      52.40505730      50.28939531
H       51.76186323      48.03611841      50.19765668
H       49.31084838      47.65221494      50.54684190
H       48.03448881      51.10592852      49.37156695
H       52.35189005      50.55178993      49.86292555
