12
Lattice="100.0 0.0 0.0 0.0 100.0 0.0 0.0 0.0 100.0" Properties=species:S:1:pos:R:3 Energy=-259787.875 Energy_pyscf=-259776.17711481 Energy_nn=-259794.203125 pbc="F F F"
C       51.38003256      50.23033189      50.08755828
C       51.08650770      48.87596885      50.33352207
N       49.70955241      48.52683628      50.63273436
C       48.66910332      49.26159343      49.97200720
N       48.99931896      50.51587652      49.52205653
C       50.17139704      51.19455274      49.87444142
O       47.61285898      48.73944836      50.39372358
O       50.18405310      52.32544726      50.15491080
H       51.71427043      47.97376471      50.10906343
H       49.30842189      47.61968720      50.51943637
H       48.23825016      51.32003651      49.67214836
H       52.34453633      50.61160897      49.74934113
