12
Lattice="100.0 0.0 0.0 0.0 100.0 0.0 0.0 0.0 100.0" Properties=species:S:1:pos:R:3 Energy=-259807.6875 Energy_pyscf=-259808.35159458933 Energy_nn=-259808.546875 pbc="F F F"
C       51.39672015      50.35300440      50.25661957
C       51.05333606      49.08210783      49.96397999
N       49.82419581      48.52859865      49.91812330
C       48.69001938      49.33752603      50.23772067
N       49.02960612      50.66765056      50.14966648
C       50.27626329      51.31629732      50.00532852
O       47.50821749      48.83315829      50.24762469
O       50.19300120      52.47347274      49.65752228
H       51.76561145      48.32493620      50.01283112
H       49.80512715      47.54593520      49.99485765
H       48.22427676      51.22593677      50.11663784
H       52.42235110      50.74225752      50.24344826
