12
Lattice="100.0 0.0 0.0 0.0 100.0 0.0 0.0 0.0 100.0" Properties=species:S:1:pos:R:3 Energy=-259802.65625 Energy_pyscf=-259800.25066889357 Energy_nn=-259804.296875 pbc="F F F"
C       51.51742595      50.41366364      50.12153442
C       51.25638026      49.05724685      50.05033246
N       50.00190701      48.65652650      50.10172654
C       48.78573206      49.36600678      50.13100274
N       49.05483991      50.81864707      50.22961443
C       50.36199980      51.31558096      49.97173775
O       47.63691457      48.84532007      50.21060450
O       50.27380754      52.49070313      49.72493471
H       52.08048507      48.43574744      49.99892007
H       50.04692347      47.57829279      50.12492405
H       48.40911117      51.55813274      49.85997986
H       52.55985365      50.76509199      49.94359945
