12
Lattice="100.0 0.0 0.0 0.0 100.0 0.0 0.0 0.0 100.0" Properties=species:S:1:pos:R:3 Energy=-259822.671875 Energy_pyscf=-259824.06909378976 Energy_nn=-259822.953125 pbc="F F F"
C       51.37580624      50.24343119      49.89153495
C       51.08880222      48.93797292      50.15515734
N       49.81020467      48.47319114      50.36036059
C       48.71369102      49.30334770      50.21819409
N       49.01992850      50.64460997      50.15593053
C       50.30122414      51.25135407      49.90668373
O       47.53632653      48.85225366      50.10709267
O       50.28255759      52.45847917      49.74047320
H       51.89588015      48.21287411      50.24077026
H       49.49532910      47.50207919      50.42807054
H       48.23681265      51.34225408      50.27395178
H       52.34864149      50.59809544      49.67149635
