12
Lattice="100.0 0.0 0.0 0.0 100.0 0.0 0.0 0.0 100.0" Properties=species:S:1:pos:R:3 Energy=-259808.0625 Energy_pyscf=-259807.4049229332 Energy_nn=-259809.015625 pbc="F F F"
C       51.34903873      50.29762936      49.94600677
C       51.13856923      48.93718305      50.10851084
N       49.96000466      48.42611671      50.46920405
C       48.71868253      49.30352611      50.26376004
N       48.96417522      50.67069101      50.32905418
C       50.27378910      51.29419321      49.99705635
O       47.62140374      48.87971404      50.07263411
O       50.33851537      52.49272417      49.95207196
H       52.03494221      48.30301303      49.94224247
H       49.73233111      47.52086486      50.29321494
H       48.11196985      51.08192756      50.38120231
H       52.30861395      50.57849470      49.49738555
