12
Lattice="100.0 0.0 0.0 0.0 100.0 0.0 0.0 0.0 100.0" Properties=species:S:1:pos:R:3 Energy=-259823.96875 Energy_pyscf=-259821.97071841732 Energy_nn=-259823.46875 pbc="F F F"
C       51.29994668      50.28565948      49.98960860
C       51.08821692      48.93666805      49.99222015
N       49.73180571      48.40061929      49.90770359
C       48.65501472      49.24611779      50.02146091
N       48.94198370      50.66237605      49.76753908
C       50.23223794      51.27693785      49.80645214
O       47.50921850      48.86891886      50.24737821
O       50.33037658      52.45747369      49.69562639
H       51.82538367      48.15404657      50.04416027
H       49.64572121      47.45580850      50.28397578
H       48.14685445      51.28995815      49.89413347
H       52.31456501      50.66148838      50.05622074
