12
Lattice="100.0 0.0 0.0 0.0 100.0 0.0 0.0 0.0 100.0" Properties=species:S:1:pos:R:3 Energy=-259811.90625 Energy_pyscf=-259812.17143364993 Energy_nn=-259812.171875 pbc="F F F"
C       51.39082681      50.22499074      49.88032696
C       51.11084995      48.87686792      50.08724686
N       49.79119702      48.39409379      50.04797129
C       48.67244398      49.19757540      49.99138231
N       48.93337585      50.61131287      50.07670410
C       50.19138401      51.25364796      49.81024574
O       47.49542947      48.80986012      50.10054019
O       50.19048652      52.43888060      49.64907228
H       51.89981519      48.06907195      50.15085539
H       49.57461430      47.44753683      50.25989263
H       48.19678534      51.36296065      50.40732259
H       52.40042626      50.58034798      50.02939742
