12
Lattice="100.0 0.0 0.0 0.0 100.0 0.0 0.0 0.0 100.0" Properties=species:S:1:pos:R:3 Energy=-259786.828125 Energy_pyscf=-259780.78125308498 Energy_nn=-259790.5 pbc="F F F"
C       51.24893074      50.33641789      50.05461425
C       51.06687754      48.99048012      50.10274379
N       49.84661725      48.44795904      50.49611456
C       48.71863205      49.22197947      50.19998968
N       49.01511767      50.62763373      49.73968641
C       50.13153220      51.24224548      50.01585014
O       47.62876556      49.17238719      50.75820048
O       50.15973306      52.48465189      50.23460065
H       51.92207489      48.21868282      50.22673181
H       49.62226014      47.42927014      50.17498673
H       48.31330317      51.19568063      49.36659067
H       52.27455526      50.57895340      50.27003667
