12
Lattice="100.0 0.0 0.0 0.0 100.0 0.0 0.0 0.0 100.0" Properties=species:S:1:pos:R:3 Energy=-259809.90625 Energy_pyscf=-259808.40248643336 pbc="F F F"
C       51.40803131      50.38357022      49.86569854
C       51.18543466      49.00129619      49.99160666
N       49.90067345      48.58842887      50.23622944
C       48.70502724      49.40520817      50.07385649
N       48.96249235      50.74074492      49.99143575
C       50.29700882      51.22615132      49.99011468
O       47.55165629      48.85996546      50.06853677
O       50.47346703      52.43098724      49.83906760
H       51.96078822      48.27630849      49.86013906
H       49.58814003      47.66650468      50.30689049
H       48.16461879      51.26409226      50.11018630
H       52.36569991      50.97332161      49.93043650
