12
Lattice="100.0 0.0 0.0 0.0 100.0 0.0 0.0 0.0 100.0" Properties=species:S:1:pos:R:3 Energy=-259796.90625 Energy_pyscf=-259792.762602456 pbc="F F F"
C       51.41410819      50.23087837      49.78433148
C       51.12504156      48.92053782      49.98533605
N       49.73656519      48.49831838      49.98557761
C       48.57475399      49.19411650      49.87368409
N       49.01065989      50.57287605      49.44309011
C       50.17680851      51.20890171      49.85696672
O       47.44031125      48.90531967      50.32369082
O       50.09396282      52.36556134      49.97951621
H       51.71252887      47.97318378      49.94755242
H       49.68019565      47.48267255      50.46705689
H       48.19539707      51.11326685      49.41416102
H       52.45458257      50.59705128      49.68234010
