12
Lattice="100.0 0.0 0.0 0.0 100.0 0.0 0.0 0.0 100.0" Properties=species:S:1:pos:R:3 Energy=-259803.4375 Energy_pyscf=-259804.04976080076 Energy_nn=-259803.875 pbc="F F F"
C       51.43787469      50.32354705      50.00264372
C       51.19224253      48.99448959      49.98323745
N       49.88626215      48.58142255      50.13559323
C       48.77770800      49.37621006      50.11235086
N       48.97625084      50.75266018      50.19160506
C       50.31836166      51.23209176      49.86646669
O       47.61011323      48.80923052      50.06441737
O       50.29538140      52.46801869      49.79817039
H       51.92219340      48.27146033      49.82789175
H       49.52626530      47.68438300      50.32522815
H       48.24143435      51.39436946      49.97767822
H       52.37284792      50.95850727      49.94725357
