12
Lattice="100.0 0.0 0.0 0.0 100.0 0.0 0.0 0.0 100.0" Properties=species:S:1:pos:R:3 Energy=-259826.59375 Energy_pyscf=-259822.9594641192 Energy_nn=-259824.9375 pbc="F F F"
C       51.44857498      50.40882057      49.82221231
C       51.25623592      49.07240537      50.10637900
N       50.01467587      48.53827384      50.15378718
C       48.81781531      49.25713524      50.07543163
N       49.07337626      50.65498913      50.02433473
C       50.33027368      51.31025693      49.89182867
O       47.67093010      48.84199865      50.16435032
O       50.48374741      52.51137342      49.64159702
H       52.07970577      48.33640521      50.34034998
H       49.86552976      47.56100979      50.17461379
H       48.24507568      51.26842828      50.06394042
H       52.41675389      50.88778011      49.78361468
