12
Lattice="100.0 0.0 0.0 0.0 100.0 0.0 0.0 0.0 100.0" Properties=species:S:1:pos:R:3 Energy=-259798.4375 Energy_pyscf=-259796.93713439663 Energy_nn=-259798.5 pbc="F F F"
C       51.35315553      50.27738832      49.95349197
C       51.06746340      48.95720695      49.94475952
N       49.82699544      48.40912728      50.27334908
C       48.64821948      49.35431935      50.32935061
N       48.94858694      50.72672345      50.09268476
C       50.22043262      51.24811567      49.95033421
O       47.55543463      48.97338253      50.09228715
O       50.44652431      52.47687314      49.81203640
H       51.74185878      48.14039864      49.91347826
H       49.70776639      47.41738279      49.98917452
H       48.16899853      51.17242197      50.27818623
H       52.32161496      50.68050266      49.83107477
