12
Lattice="100.0 0.0 0.0 0.0 100.0 0.0 0.0 0.0 100.0" Properties=species:S:1:pos:R:3 Energy=-259815.984375 Energy_pyscf=-259814.66446545447 pbc="F F F"
C       51.40174819      50.32768805      49.96587493
C       51.13912470      48.98511418      50.01026760
N       49.90267931      48.52619026      50.00515236
C       48.72482333      49.22639119      50.09187205
N       49.01872478      50.52886361      49.71971198
C       50.27438436      51.25476186      49.79432116
O       47.58060454      48.83889367      50.13600954
O       50.31405322      52.47210110      49.79086292
H       51.86774975      48.15505539      50.06225293
H       49.71789169      47.58472863      50.04320022
H       48.17999083      51.04693019      49.76041634
H       52.36327569      50.73083497      50.19042392
