12
Lattice="100.0 0.0 0.0 0.0 100.0 0.0 0.0 0.0 100.0" Properties=species:S:1:pos:R:3 Energy=-259809.03125 Energy_pyscf=-259807.95840728155 Energy_nn=-259810.046875 pbc="F F F"
C       51.48846696      50.31615029      49.65473583
C       51.26773157      49.00538143      49.88624131
N       50.05525995      48.53167356      50.21796402
C       48.82576556      49.29492954      49.96883727
N       49.06902062      50.55171655      49.66246281
C       50.29694664      51.24148360      49.86018353
O       47.77103256      48.76863330      49.97639908
O       50.45842808      52.46254523      49.91189485
H       52.11505691      48.20608422      49.93901053
H       50.00031475      47.85438551      50.92609182
H       48.24291449      51.17095297      49.60824482
H       52.44648408      50.64941715      49.23133373
