12
Lattice="100.0 0.0 0.0 0.0 100.0 0.0 0.0 0.0 100.0" Properties=species:S:1:pos:R:3 Energy=-259793.28125 Energy_pyscf=-259800.21073595612 Energy_nn=-259795.453125 pbc="F F F"
C       51.24906281      50.21196321      49.86691602
C       51.01068414      48.92066955      49.86252938
N       49.76750018      48.43810071      50.29770663
C       48.63183387      49.29706647      50.25216820
N       48.89384575      50.60643576      49.91865031
C       50.25346000      51.21607899      49.88974689
O       47.55505163      48.61933988      50.35403000
O       50.33769452      52.42101642      49.95138016
H       51.78806677      48.24534499      49.91837502
H       49.44280659      47.49700122      49.89434076
H       48.24601237      51.25634320      49.60297029
H       52.32762006      50.43977331      49.95899905
