12
Lattice="100.0 0.0 0.0 0.0 100.0 0.0 0.0 0.0 100.0" Properties=species:S:1:pos:R:3 Energy=-259789.375 Energy_pyscf=-259792.5140416318 Energy_nn=-259793.9375 pbc="F F F"
C       51.29589009      50.25778780      50.02615792
C       51.02942286      48.92522072      50.20437173
N       49.74408922      48.48419664      50.52514768
C       48.72693072      49.33763270      50.15162211
N       49.08833541      50.59998204      49.52787490
C       50.23263661      51.15823224      50.09430952
O       47.58115428      49.22385331      50.50491556
O       50.13998850      52.41220798      50.38392888
H       51.93753073      48.33019990      50.13641341
H       49.63375775      47.41348002      50.40664445
H       48.23464877      51.11785320      49.54925038
H       52.31737942      50.72482720      50.09776975
