12
Lattice="100.0 0.0 0.0 0.0 100.0 0.0 0.0 0.0 100.0" Properties=species:S:1:pos:R:3 Energy=-259815.84375 Energy_pyscf=-259813.98765333908 pbc="F F F"
C       51.47793738      50.18843469      49.71749421
C       51.23944001      48.81275422      50.02856058
N       49.96027647      48.47940680      50.33072356
C       48.69640924      49.16334918      50.01107381
N       49.04144447      50.49165591      49.80029979
C       50.39965133      51.12562336      49.81959876
O       47.62865324      48.67468343      50.12964114
O       50.44882132      52.33988578      49.90287443
H       51.94601448      47.98033859      49.98923696
H       49.67371787      47.58290582      50.64206561
H       48.23581004      51.11080325      49.61838206
H       52.37449338      50.58208819      49.26340845
