12
Lattice="100.0 0.0 0.0 0.0 100.0 0.0 0.0 0.0 100.0" Properties=species:S:1:pos:R:3 Energy=-259788.421875 Energy_pyscf=-259785.72475705796 Energy_nn=-259791.96875 pbc="F F F"
C       51.36439507      50.23788535      50.06142626
C       51.09146519      48.92629266      49.91283677
N       49.83410959      48.38452800      50.18563273
C       48.77112844      49.19637385      50.25637658
N       49.05321957      50.56646342      49.75837133
C       50.26809863      51.14304929      49.89408376
O       47.66336439      49.04341013      50.61119680
O       50.34011752      52.32874418      50.06292119
H       51.79285586      48.02527231      50.02560489
H       49.55649332      47.49838354      50.29854397
H       48.19488567      51.03741810      49.50584830
H       52.17606145      50.76429505      50.49075206
