12
Lattice="100.0 0.0 0.0 0.0 100.0 0.0 0.0 0.0 100.0" Properties=species:S:1:pos:R:3 Energy=-259788.90625 Energy_pyscf=-259766.50533490116 Energy_nn=-259792.484375 pbc="F F F"
C       51.23543492      50.26293074      49.93407670
C       51.10560392      48.87056776      50.40585294
N       49.80457312      48.45628453      50.32226800
C       48.78013450      49.28932679      50.22621333
N       48.95528248      50.66472335      49.77996812
C       50.25441188      51.24322373      49.99417954
O       47.59768413      49.11742214      50.63477721
O       50.18784124      52.40741093      50.35080441
H       52.08276172      48.30803497      50.50960523
H       49.49097213      47.52052157      50.05032429
H       48.22476090      51.18441870      49.54993567
H       52.19570222      50.65879408      49.88640847
