12
Lattice="100.0 0.0 0.0 0.0 100.0 0.0 0.0 0.0 100.0" Properties=species:S:1:pos:R:3 Energy=-259796.6875 Energy_pyscf=-259789.97044231754 Energy_nn=-259796.46875 pbc="F F F"
C       51.31004061      50.26309007      49.90099604
C       51.05631905      48.96381660      49.89501211
N       49.85160689      48.46237190      49.60667046
C       48.67834859      49.26109079      49.96902773
N       48.85939937      50.60894575      49.60625858
C       50.28126117      51.18613749      49.81818527
O       47.61715668      48.60869636      50.26674316
O       50.37528521      52.33737714      49.51383497
H       51.70666523      48.26832321      50.43233428
H       49.55683486      47.54096754      49.70039017
H       48.03253467      51.14968937      49.83918685
H       52.29558549      50.59802174      49.94005331
