12
Lattice="100.0 0.0 0.0 0.0 100.0 0.0 0.0 0.0 100.0" Properties=species:S:1:pos:R:3 Energy=-259797.015625 Energy_pyscf=-259784.86187855215 Energy_nn=-259798.28125 pbc="F F F"
C       51.26917777      50.21810294      49.90326898
C       51.13647402      48.89803425      49.94509251
N       49.83867083      48.33652756      50.17826724
C       48.70139440      49.16094474      50.01406223
N       48.88242618      50.70756269      50.14373111
C       50.14212247      51.19234074      49.76413292
O       47.54809300      48.86583676      49.86995319
O       50.35170826      52.41996615      49.81453119
H       51.79805094      48.07222952      49.48004157
H       49.62584749      47.45915665      50.56431282
H       48.16263586      51.38165592      49.72385912
H       52.21210251      50.69171504      49.90630610
