12
Lattice="100.0 0.0 0.0 0.0 100.0 0.0 0.0 0.0 100.0" Properties=species:S:1:pos:R:3 Energy=-259816.203125 Energy_pyscf=-259815.58979478362 Energy_nn=-259816.515625 pbc="F F F"
C       51.35041076      50.36103290      50.13961047
C       51.09067370      49.04517904      50.06766577
N       49.84921611      48.50031246      49.96913294
C       48.67698742      49.36593338      50.03997796
N       48.97382033      50.71231405      50.22558104
C       50.26541094      51.31416240      49.98010823
O       47.57990197      48.79638606      50.20276534
O       50.35464927      52.46222268      49.73422039
H       51.85754295      48.22875794      49.93263543
H       49.81459957      47.49075435      50.11292225
H       48.06469527      51.30918985      50.18686585
H       52.35056499      50.83671315      50.22024078
