12
Lattice="100.0 0.0 0.0 0.0 100.0 0.0 0.0 0.0 100.0" Properties=species:S:1:pos:R:3 Energy=-259809.484375 Energy_pyscf=-259806.73039816323 pbc="F F F"
C       51.41675017      50.44147296      50.07271242
C       51.21253828      49.12209734      50.17016334
N       49.98477972      48.54286046      50.05554089
C       48.80018383      49.28319222      50.09804576
N       49.13703785      50.60368790      50.18396690
C       50.33340049      51.26356186      49.99735635
O       47.61011285      48.88901403      50.16898007
O       50.44389234      52.41851389      49.48077746
H       52.10264371      48.44313035      50.17437578
H       49.87456133      47.55110384      50.15920426
H       48.45146686      51.25576348      49.94573951
H       52.36186571      50.86090288      49.76312137
