12
Lattice="100.0 0.0 0.0 0.0 100.0 0.0 0.0 0.0 100.0" Properties=species:S:1:pos:R:3 Energy=-259811.5625 Energy_pyscf=-259812.48829821072 Energy_nn=-259811.890625 pbc="F F F"
C       51.36430781      50.24428632      49.88857901
C       51.12050314      48.89392057      49.95325470
N       49.81295801      48.41315559      50.11570089
C       48.63471718      49.30867718      50.01384079
N       48.95327820      50.68915701      50.31197866
C       50.20725556      51.24669296      49.93977010
O       47.56314268      48.74839270      50.05676865
O       50.26198221      52.44623567      49.65388145
H       51.96517343      48.18666086      49.85052227
H       49.57480348      47.42891832      49.90634912
H       48.10429595      51.18135930      50.36435072
H       52.43075328      50.45862571      49.69741880
