12
Lattice="100.0 0.0 0.0 0.0 100.0 0.0 0.0 0.0 100.0" Properties=species:S:1:pos:R:3 Energy=-259796.21875 Energy_pyscf=-259786.62938464183 Energy_nn=-259797.296875 pbc="F F F"
C       51.30340348      50.26825667      49.91704418
C       51.06648420      48.86709776      50.31050554
N       49.83144630      48.39227771      50.05877998
C       48.61635205      49.25243550      50.00909358
N       48.85477009      50.50904837      49.57240095
C       50.20564891      51.14349561      49.79509714
O       47.53127380      48.88749398      50.55103685
O       50.31708778      52.34035533      49.97795372
H       51.95697088      48.14465749      50.16235658
H       49.43720860      47.32754883      50.20486912
H       47.96399010      51.14057107      49.82242469
H       52.39239766      50.66686741      49.75640910
