12
Lattice="100.0 0.0 0.0 0.0 100.0 0.0 0.0 0.0 100.0" Properties=species:S:1:pos:R:3 Energy=-259788.78125 Energy_pyscf=-259788.69683396543 Energy_nn=-259791.046875 pbc="F F F"
C       51.27886081      50.28784998      49.90025021
C       51.02879360      48.98591105      49.89317516
N       49.82990688      48.46573672      49.57928318
C       48.72776189      49.20179690      49.88511818
N       48.82412423      50.57016870      49.69716153
C       50.28401547      51.28281318      49.66256985
O       47.68222778      48.52733601      50.35674010
O       50.45335707      52.40687769      49.25587202
H       51.66350393      48.30428352      50.27359078
H       49.49172884      47.47804811      49.62594029
H       48.11570621      51.17447866      49.98886180
H       52.23564601      50.54936228      50.31888489
