12
Lattice="100.0 0.0 0.0 0.0 100.0 0.0 0.0 0.0 100.0" Properties=species:S:1:pos:R:3 Energy=-259810.734375 Energy_pyscf=-259810.51967833762 pbc="F F F"
C       51.33209676      50.29415493      49.99708736
C       51.08431262      48.95975001      50.02662839
N       49.80051095      48.50872382      50.27282823
C       48.69368979      49.37207702      50.25441734
N       48.92717643      50.64645901      50.16061972
C       50.20673393      51.26180959      49.98701112
O       47.56465680      48.88493705      50.08907073
O       50.37086105      52.42441060      49.71616612
H       51.76811839      48.17941075      49.95114074
H       49.62330813      47.55760404      49.91780245
H       48.20340191      51.21885378      50.34252981
H       52.41164844      50.59542691      49.76437836
