12
Lattice="100.0 0.0 0.0 0.0 100.0 0.0 0.0 0.0 100.0" Properties=species:S:1:pos:R:3 Energy=-259802.96875 Energy_pyscf=-259803.198275724 Energy_nn=-259803.3125 pbc="F F F"
C       51.36754285      50.23063581      49.77762524
C       51.14648862      48.98772710      50.16128535
N       49.87598703      48.47903342      50.18035382
C       48.65534498      49.24706812      50.12132445
N       48.86866522      50.56776354      49.74409671
C       50.29002090      51.18747016      49.77628474
O       47.52349819      48.79551887      49.95770518
O       50.45649625      52.38846737      49.89075072
H       51.93070426      48.19706781      50.15988534
H       49.66657361      47.55818893      50.42641655
H       47.88277194      51.00970527      49.74166663
H       52.33042259      50.53020842      49.46896590
