12
Lattice="100.0 0.0 0.0 0.0 100.0 0.0 0.0 0.0 100.0" Properties=species:S:1:pos:R:3 Energy=-259802.96875 Energy_pyscf=-259801.88417856419 Energy_nn=-259802.734375 pbc="F F F"
C       51.32516141      50.18544149      50.00885573
C       51.13564589      48.89993268      50.10960389
N       49.85163944      48.44273394      50.03574381
C       48.63023770      49.25578720      49.94102028
N       48.88435791      50.57129901      49.78823480
C       50.18461164      51.18164403      49.98087554
O       47.54089426      48.82306323      50.18001449
O       50.27019519      52.45023373      49.82029398
H       51.87524634      48.10712827      49.99743486
H       49.60534472      47.60379597      50.45979860
H       48.23719588      51.22628055      50.28016820
H       52.28762191      50.52557209      49.88964611
