12
Lattice="100.0 0.0 0.0 0.0 100.0 0.0 0.0 0.0 100.0" Properties=species:S:1:pos:R:3 Energy=-259818.78125 Energy_pyscf=-259817.41836073235 Energy_nn=-259819.28125 pbc="F F F"
C       51.30650702      50.20615042      50.01116437
C       51.07299732      48.89141667      50.06929977
N       49.76757134      48.42842256      49.94675829
C       48.67337863      49.31060658      50.05372878
N       48.95460904      50.64385312      49.98640567
C       50.18655714      51.17724690      49.92607491
O       47.49186401      48.92601389      50.10908682
O       50.27945048      52.38502588      49.69252115
H       51.90349202      48.24367247      50.25123715
H       49.62756755      47.52196200      50.39542999
H       48.12705051      51.15873529      50.16567370
H       52.34706300      50.52653217      50.02425852
