12
Lattice="100.0 0.0 0.0 0.0 100.0 0.0 0.0 0.0 100.0" Properties=species:S:1:pos:R:3 Energy=-259815.15625 Energy_pyscf=-259814.48777664165 pbc="F F F"
C       51.34839124      50.20731047      49.93439152
C       51.07649894      48.92449993      50.20679965
N       49.82594576      48.47526699      50.42621535
C       48.70493400      49.32062914      50.33201669
N       48.99196357      50.65112567      50.13372429
C       50.21689889      51.17939573      49.94765820
O       47.54439269      48.89535649      50.12154679
O       50.28195957      52.38378538      49.74886894
H       51.98158018      48.26096243      50.34175072
H       49.51715952      47.51843962      50.21795747
H       48.33160567      51.39742671      50.21347601
H       52.30435539      50.62364005      49.54796301
