9
Lattice="100.0 0.0 0.0 0.0 100.0 0.0 0.0 0.0 100.0" Properties=species:S:1:pos:R:3 Energy=-97077.2624563274 Energy_pyscf=-97077.10961690509 pbc="F F F" Energy_pyscf_og=-97077.11362377481
C       50.08201216      49.27477584      50.07018122
C       49.40291641      50.68114810      50.08782417
O       51.43469708      49.36855856      49.72954246
H       50.05113215      48.94960817      51.13265245
H       49.53364358      48.50396844      49.53374118
H       48.65796106      50.49982583      50.94565501
H       50.09103054      51.41655064      50.59926575
H       49.03451762      50.85307733      49.02542311
H       51.53107237      49.86654484      48.84747329
