9
Lattice="100.0 0.0 0.0 0.0 100.0 0.0 0.0 0.0 100.0" Properties=species:S:1:pos:R:3 Energy=-97070.51544724469 Energy_pyscf=-97070.37528828459 pbc="F F F" Energy_pyscf_og=-97070.37348480301
C       50.16523602      49.33196584      50.10541375
C       49.55586697      50.85770199      50.16794749
O       51.50674306      49.33309708      49.70026411
H       50.10274986      48.74761567      51.00469502
H       49.70401140      48.53534776      49.54312141
H       50.15663040      51.49040942      50.87200875
H       49.45261877      51.20639427      49.12333838
H       48.58220272      50.82227067      50.44873440
H       51.49087805      49.89127785      48.87858946
