9
Lattice="100.0 0.0 0.0 0.0 100.0 0.0 0.0 0.0 100.0" Properties=species:S:1:pos:R:3 Energy=-97074.27704332786 Energy_pyscf=-97074.11822889137 pbc="F F F" Energy_pyscf_og=-97074.1169150748
C       50.01351089      49.20797010      50.02164957
C       49.32758161      50.55052323      50.19992144
O       51.38149792      49.27986574      49.76167234
H       50.05181261      48.69872747      51.03270964
H       49.46913389      48.58101737      49.18864583
H       49.90599074      51.21425982      49.59514929
H       48.34145180      50.39544163      49.83399757
H       49.37478777      51.19745518      51.08244828
H       51.63861505      49.83530229      48.98122434
