9
Lattice="100.0 0.0 0.0 0.0 100.0 0.0 0.0 0.0 100.0" Properties=species:S:1:pos:R:3 Energy=-97078.22144988432 Energy_pyscf=-97078.04565771008 pbc="F F F" Energy_pyscf_og=-97078.05130499086
C       50.17925632      49.35563097      50.07162789
C       49.57883279      50.74272754      50.13846463
O       51.63384437      49.33437578      49.62815602
H       50.25913615      48.91095706      51.08676237
H       49.52400810      48.71871736      49.45785359
H       49.58077693      51.30565038      51.03455966
H       50.06155556      51.37529468      49.27834007
H       48.50384121      50.70800516      49.89085304
H       51.64837285      49.93415465      48.92452894
