9
Lattice="100.0 0.0 0.0 0.0 100.0 0.0 0.0 0.0 100.0" Properties=species:S:1:pos:R:3 Energy=-97074.96433453956 Energy_pyscf=-97074.78994906989 pbc="F F F" Energy_pyscf_og=-97074.79285941603
C       49.96779463      49.33422333      50.11475426
C       49.19773708      50.77552190      50.21349742
O       51.36820457      49.46547505      49.66681238
H       50.07901970      48.89356433      51.12482798
H       49.37622136      48.70654101      49.51645124
H       50.12697259      51.41282320      50.34236041
H       48.92931806      51.11176151      49.19141874
H       48.44145878      50.95004057      50.93698743
H       51.47708814      48.85700651      48.90383148
