9
Lattice="100.0 0.0 0.0 0.0 100.0 0.0 0.0 0.0 100.0" Properties=species:S:1:pos:R:3 Energy=-97073.23151187714 Energy_pyscf=-97073.06992686816 pbc="F F F" Energy_pyscf_og=-97073.0729915988
C       50.05330182      49.27303849      50.01839563
C       49.34541403      50.59980103      50.20508976
O       51.50330745      49.32492882      49.81331226
H       50.07474181      48.56551244      50.98293841
H       49.46457547      48.48348194      49.27487782
H       49.83911754      51.38700015      49.52682091
H       48.25948902      50.54352706      49.80196880
H       49.29124367      51.10053698      51.16792110
H       51.67575652      49.70453239      48.86547320
