9
Lattice="100.0 0.0 0.0 0.0 100.0 0.0 0.0 0.0 100.0" Properties=species:S:1:pos:R:3 Energy=-97078.88129703442 Energy_pyscf=-97078.87553274973 pbc="F F F" Energy_pyscf_og=-97078.73552586869
C       50.15187668      49.43016035      50.12952908
C       49.51234498      50.85703723      50.17058291
O       51.57545041      49.45136948      49.74835612
H       50.12435542      48.82169643      51.02249256
H       49.71310441      48.77902707      49.43771523
H       50.06062651      51.50197162      50.86644042
H       49.51365923      51.27549712      49.21560078
H       48.51435039      50.62462892      50.52060477
H       51.56735718      49.50027191      48.73961912
