9
Lattice="100.0 0.0 0.0 0.0 100.0 0.0 0.0 0.0 100.0" Properties=species:S:1:pos:R:3 Energy=-97070.59786880312 Energy_pyscf=-97070.44201980584 pbc="F F F" Energy_pyscf_og=-97070.44486148289
C       50.16718413      49.33018472      50.06683513
C       49.52020131      50.81796554      50.14611756
O       51.60925999      49.41230034      49.72240449
H       50.09033563      48.90466759      51.08460728
H       49.62761823      48.69999005      49.37323717
H       49.78621913      51.28981884      50.97467680
H       49.90049668      51.42073509      49.16830541
H       48.47462385      50.65393816      50.04197547
H       51.79730931      49.88035784      48.94560164
