9
Lattice="100.0 0.0 0.0 0.0 100.0 0.0 0.0 0.0 100.0" Properties=species:S:1:pos:R:3 Energy=-97078.71036309536 Energy_pyscf=-97078.57344059786 pbc="F F F" Energy_pyscf_og=-97078.5732965473
C       50.17551352      49.47683643      50.06170328
C       49.57940445      50.77552249      50.17979729
O       51.53871161      49.48583033      49.73127809
H       50.09173893      48.97076880      51.06319581
H       49.66956906      48.70753085      49.48658642
H       50.07964811      51.34279133      50.96736857
H       49.54749212      51.15413893      49.14379527
H       48.55066890      50.64256435      50.47140198
H       51.46696703      49.67280347      48.75662377
