9
Lattice="100.0 0.0 0.0 0.0 100.0 0.0 0.0 0.0 100.0" Properties=species:S:1:pos:R:3 Energy=-97075.18289577184 Energy_pyscf=-97075.03770316734 pbc="F F F" Energy_pyscf_og=-97075.03472554877
C       50.13877782      49.27917461      50.05112033
C       49.51749661      50.64845046      50.13656748
O       51.49791807      49.22993005      49.66819046
H       50.11324669      48.61135960      50.98086124
H       49.35920069      48.73770954      49.41089298
H       48.49522723      50.31605446      50.24824544
H       49.72462832      51.14951071      51.03035799
H       49.67019037      51.11484238      49.14120802
H       51.73280437      49.88456283      48.91786046
