9
Lattice="100.0 0.0 0.0 0.0 100.0 0.0 0.0 0.0 100.0" Properties=species:S:1:pos:R:3 Energy=-97083.24445747012 Energy_pyscf=-97083.08128502445 pbc="F F F" Energy_pyscf_og=-97083.07841424528
C       50.09620440      49.39078433      49.86850320
C       49.49381889      50.78012483      49.91352912
O       51.52060821      49.36787496      49.74259591
H       49.80792492      48.85364676      50.77789504
H       49.66473884      48.75829478      49.04993602
H       49.72463726      51.43382436      50.86133107
H       49.81833082      51.39704770      49.04821711
H       48.40207435      50.53101580      49.93183524
H       51.73803995      50.29588323      49.74030905
