9
Lattice="100.0 0.0 0.0 0.0 100.0 0.0 0.0 0.0 100.0" Properties=species:S:1:pos:R:3 Energy=-97073.13465186286 Energy_pyscf=-97072.96563199988 pbc="F F F" Energy_pyscf_og=-97072.9702510371
C       50.08307250      49.29432109      50.11166187
C       49.31355682      50.64947160      50.18018160
O       51.47232782      49.40904789      49.74189947
H       49.96491278      48.72280310      51.04168346
H       49.73790397      48.70672170      49.32948007
H       49.77703399      51.44296802      49.63157994
H       48.33803361      50.45762078      49.61670493
H       49.36819437      50.83066382      51.23084733
H       51.48485410      49.45110690      48.78305675
