9
Lattice="100.0 0.0 0.0 0.0 100.0 0.0 0.0 0.0 100.0" Properties=species:S:1:pos:R:3 Energy=-97079.18275888218 Energy_pyscf=-97079.02537776099 pbc="F F F" Energy_pyscf_og=-97079.03015896154
C       49.74535176      49.29150072      49.96754720
C       49.19636758      50.72802932      49.90288409
O       51.12077973      49.32238311      49.54618846
H       49.68952500      48.85853061      50.93678214
H       49.08671918      48.60552026      49.42659092
H       48.35742413      50.74424565      50.54155618
H       49.81864292      51.55319648      50.23094069
H       48.76375220      50.94389711      48.81078993
H       51.55020073      48.43773374      49.73363643
