9
Lattice="100.0 0.0 0.0 0.0 100.0 0.0 0.0 0.0 100.0" Properties=species:S:1:pos:R:3 Energy=-97073.98684291197 Energy_pyscf=-97073.80808567442 pbc="F F F" Energy_pyscf_og=-97073.80962909447
C       49.75212876      49.36508150      49.93917003
C       49.13724868      50.69720852      49.92517388
O       51.18397195      49.36739204      49.58988567
H       49.57959934      49.01354267      50.98758872
H       49.26450457      48.66037601      49.16400801
H       48.34423824      50.81246937      50.70836722
H       49.98628883      51.27051622      50.03310327
H       48.56108695      50.81682293      48.96746438
H       51.54387788      48.43704959      49.77482205
