9
Lattice="100.0 0.0 0.0 0.0 100.0 0.0 0.0 0.0 100.0" Properties=species:S:1:pos:R:3 Energy=-97081.1566263742 Energy_pyscf=-97081.01302959764 pbc="F F F" Energy_pyscf_og=-97081.01528832426
C       49.77765965      49.30822922      50.00767042
C       49.16792916      50.67366720      49.88628552
O       51.00690632      49.26023520      49.34412048
H       49.96355796      49.14414971      51.08149033
H       49.12465845      48.57177235      49.41371852
H       48.15757124      50.59868913      50.42229488
H       49.82878268      51.37420290      50.35152685
H       48.97446006      51.06229975      48.84169315
H       51.38676539      48.46405786      49.75409690
