9
Lattice="100.0 0.0 0.0 0.0 100.0 0.0 0.0 0.0 100.0" Properties=species:S:1:pos:R:3 Energy=-97082.16727438629 Energy_pyscf=-97082.0147362276 pbc="F F F" Energy_pyscf_og=-97082.01773643389
C       49.99022039      49.24173174      49.91222547
C       49.33517971      50.59930054      50.00079828
O       51.36982167      49.38557355      49.53522431
H       49.76824715      48.74820616      50.83617519
H       49.61588940      48.58783660      49.05946716
H       49.78146425      51.27775543      49.21125051
H       48.20374380      50.54793011      49.82553818
H       49.57044837      51.02768832      51.03906901
H       51.79163217      48.58052306      49.81148287
