9
Lattice="100.0 0.0 0.0 0.0 100.0 0.0 0.0 0.0 100.0" Properties=species:S:1:pos:R:3 Energy=-97073.87659309176 Energy_pyscf=-97073.7076247276 pbc="F F F" Energy_pyscf_og=-97073.70810455857
C       49.88843201      49.35630956      49.79349974
C       49.13611303      50.73602696      49.79370008
O       51.20056239      49.21740906      49.18886360
H       50.11740336      48.91822728      50.85294637
H       49.34287181      48.59780999      49.28998719
H       48.85544239      51.02658049      50.81445796
H       49.99490412      51.50878278      49.46328002
H       48.30882290      50.86323589      49.13489056
H       51.74482307      49.67914563      49.90783997
