9
Lattice="100.0 0.0 0.0 0.0 100.0 0.0 0.0 0.0 100.0" Properties=species:S:1:pos:R:3 Energy=-97079.51545964881 Energy_pyscf=-97079.36485860299 pbc="F F F" Energy_pyscf_og=-97079.36408747283
C       50.12265112      49.29204647      50.08865928
C       49.49687854      50.67414228      50.15376760
O       51.53054799      49.32192671      49.70568062
H       50.17078137      48.92906805      51.08186269
H       49.52671793      48.57959436      49.57006122
H       48.52513074      50.61221008      50.55355833
H       50.06778302      51.45144794      50.76948465
H       49.41534523      51.20193853      49.25304846
H       51.70002824      49.12323449      48.76505294
