9
Lattice="100.0 0.0 0.0 0.0 100.0 0.0 0.0 0.0 100.0" Properties=species:S:1:pos:R:3 Energy=-97073.38626436678 Energy_pyscf=-97073.22353951378 pbc="F F F" Energy_pyscf_og=-97073.22886689944
C       49.94192264      49.20411526      49.79637890
C       49.33752360      50.54346444      49.88780500
O       51.34190861      49.44130244      49.64819207
H       49.84772401      48.63771479      50.76794583
H       49.30821260      48.55035192      49.05376338
H       49.91241207      51.29466944      49.31069748
H       48.20921830      50.53071411      49.98405671
H       49.59023124      51.06593715      50.86227999
H       51.92754430      48.70562554      49.95650685
