9
Lattice="100.0 0.0 0.0 0.0 100.0 0.0 0.0 0.0 100.0" Properties=species:S:1:pos:R:3 Energy=-97077.505166997 Energy_pyscf=-97077.35873718484 pbc="F F F" Energy_pyscf_og=-97077.36125429011
C       49.95466968      49.33157886      49.94578055
C       49.44630003      50.65321091      50.14690309
O       51.28257202      49.56274581      49.43634808
H       49.91769041      48.68542436      50.91960509
H       49.40932631      48.77675919      49.21817755
H       48.45402398      50.85001778      50.55628313
H       50.29907576      51.24546108      50.60810943
H       49.26635147      51.18980085      49.12623042
H       51.63705590      48.73612341      49.16375852
