9
Lattice="100.0 0.0 0.0 0.0 100.0 0.0 0.0 0.0 100.0" Properties=species:S:1:pos:R:3 Energy=-97076.0556032821 Energy_pyscf=-97075.90854811261 pbc="F F F" Energy_pyscf_og=-97075.91083972831
C       50.08930801      49.14483263      49.95651969
C       49.47746755      50.57285539      50.22402359
O       51.54720993      49.29931905      49.67637881
H       49.80199395      48.63370369      50.79312091
H       49.47405563      48.84698607      49.06068485
H       49.82247620      51.00735464      51.12663682
H       49.63798221      51.25310039      49.40324714
H       48.38463112      50.55164268      50.35549528
H       51.81137749      48.56534260      49.15227914
