9
Lattice="100.0 0.0 0.0 0.0 100.0 0.0 0.0 0.0 100.0" Properties=species:S:1:pos:R:3 Energy=-97068.08693823635 Energy_pyscf=-97067.93919983826 pbc="F F F" Energy_pyscf_og=-97067.93887330098
C       50.01419638      49.26275865      49.84464052
C       49.47175476      50.70683700      49.94105838
O       51.48793575      49.39558956      49.53543426
H       49.86258714      48.55016525      50.68758207
H       49.62499459      48.70519054      49.03330925
H       48.32978387      50.71312273      49.86099355
H       49.60037453      51.41179687      50.67723860
H       49.50538986      51.38271254      49.09078939
H       51.91188019      49.80685308      50.31874885
