9
Lattice="100.0 0.0 0.0 0.0 100.0 0.0 0.0 0.0 100.0" Properties=species:S:1:pos:R:3 Energy=-97082.7231608031 Energy_pyscf=-97082.58114241602 pbc="F F F" Energy_pyscf_og=-97082.58189102639
C       49.93221103      49.41389715      50.02891503
C       49.41939526      50.82435661      50.13146591
O       51.38547756      49.37030052      49.81923939
H       49.80943446      48.91275151      51.04878327
H       49.43866820      48.76516185      49.29236457
H       48.35979617      50.74864207      50.26313683
H       49.82921481      51.41265351      50.90412786
H       49.47318489      51.30766352      49.14030902
H       51.53159230      48.42269038      49.59224042
