9
Lattice="100.0 0.0 0.0 0.0 100.0 0.0 0.0 0.0 100.0" Properties=species:S:1:pos:R:3 Energy=-97076.3043582654 Energy_pyscf=-97076.13484174231 pbc="F F F" Energy_pyscf_og=-97076.13302475637
C       49.82635683      49.35587214      49.90731695
C       49.16044108      50.75698559      49.98471338
O       51.21133126      49.48445242      49.64555505
H       49.74002146      48.79810747      50.81265452
H       49.23857999      48.67125200      49.14100415
H       48.23651380      50.86706643      50.66046229
H       49.89584975      51.30788655      50.50741548
H       49.15779368      51.21979690      49.05044653
H       51.71124728      49.04437679      50.39293668
