9
Lattice="100.0 0.0 0.0 0.0 100.0 0.0 0.0 0.0 100.0" Properties=species:S:1:pos:R:3 Energy=-97075.06277382512 Energy_pyscf=-97074.89683603935 pbc="F F F" Energy_pyscf_og=-97074.90436584596
C       50.26101102      49.32079601      50.17010950
C       49.50635138      50.61053890      50.18300765
O       51.58977617      49.38228497      49.60611663
H       50.17628077      48.92949355      51.23868254
H       49.53908288      48.72726867      49.44176438
H       48.43071488      50.63063107      50.50328749
H       49.97675656      51.35376626      50.79048115
H       49.45468277      51.25522133      49.24379504
H       51.57651113      48.95110585      48.77607666
