9
Lattice="100.0 0.0 0.0 0.0 100.0 0.0 0.0 0.0 100.0" Properties=species:S:1:pos:R:3 Energy=-97073.6358508014 Energy_pyscf=-97073.48583420376 pbc="F F F" Energy_pyscf_og=-97073.48165509537
C       50.17361363      49.25641681      50.09769008
C       49.43112677      50.67511911      50.08181862
O       51.52921702      49.24092088      49.74245563
H       50.05133944      48.90251180      51.03092041
H       49.60350005      48.52136892      49.50532731
H       48.63442788      50.57783079      50.92402521
H       50.02684680      51.47620226      50.44296309
H       48.95852057      50.95094059      49.10519882
H       51.39587989      49.83708165      49.00174145
