9
Lattice="100.0 0.0 0.0 0.0 100.0 0.0 0.0 0.0 100.0" Properties=species:S:1:pos:R:3 Energy=-97074.32031552277 Energy_pyscf=-97074.1735939949 pbc="F F F" Energy_pyscf_og=-97074.17597754218
C       50.01043476      49.31326631      49.74136637
C       49.36319619      50.68760694      49.87359057
O       51.45969626      49.25535257      49.68031735
H       49.71093792      48.95327309      50.75532175
H       49.66058220      48.58841529      48.98950787
H       48.32335006      50.65609689      49.83685150
H       49.79434174      51.05441872      50.76989749
H       49.54132331      51.49227184      49.11967877
H       51.96597757      49.94713415      50.23755575
