9
Lattice="100.0 0.0 0.0 0.0 100.0 0.0 0.0 0.0 100.0" Properties=species:S:1:pos:R:3 Energy=-97070.82808839461 Energy_pyscf=-97070.64967820537 pbc="F F F" Energy_pyscf_og=-97070.64662330272
C       50.14855172      49.26801431      50.16379170
C       49.37505904      50.57133137      50.21750952
O       51.45519735      49.50402091      49.71024610
H       49.94590836      48.57126583      51.05693340
H       49.67013633      48.73166156      49.32409062
H       49.86270169      51.36032264      49.49382455
H       48.41144877      50.53233937      49.67447120
H       49.15974248      50.96615392      51.33523704
H       51.47538747      49.42014610      48.72459072
