9
Lattice="100.0 0.0 0.0 0.0 100.0 0.0 0.0 0.0 100.0" Properties=species:S:1:pos:R:3 Energy=-97080.43675457884 Energy_pyscf=-97080.26194013885 pbc="F F F" Energy_pyscf_og=-97080.25228703905
C       49.93077096      49.36313685      49.82948212
C       49.17999382      50.80941280      49.80906399
O       51.23119155      49.38439010      49.20854166
H       49.93980619      48.82304901      50.82905557
H       49.33149561      48.55806718      49.27715489
H       48.82063094      51.13176705      50.80934968
H       49.94646013      51.52099964      49.43669324
H       48.29125620      50.77559649      49.17305526
H       51.91238913      49.55284243      49.86534077
