9
Lattice="100.0 0.0 0.0 0.0 100.0 0.0 0.0 0.0 100.0" Properties=species:S:1:pos:R:3 Energy=-97076.11749163178 Energy_pyscf=-97075.96830673337 pbc="F F F" Energy_pyscf_og=-97075.96914444702
C       50.08213350      49.48033657      49.84799871
C       49.37159586      50.75045798      49.84598449
O       51.50052063      49.49674772      49.64443574
H       49.76708473      48.84406766      50.70855480
H       49.73274414      48.73210708      49.12226105
H       49.86006847      51.22232553      50.71746755
H       49.71091334      51.21853810      48.94136283
H       48.29307434      50.76987904      50.09371837
H       51.95945118      50.31819177      49.96891692
