9
Lattice="100.0 0.0 0.0 0.0 100.0 0.0 0.0 0.0 100.0" Properties=species:S:1:pos:R:3 Energy=-97081.47410009697 Energy_pyscf=-97081.33066503341 pbc="F F F" Energy_pyscf_og=-97081.32987507083
C       50.12090930      49.21047866      50.06519337
C       49.47862605      50.56506274      50.13550849
O       51.52694131      49.27475333      49.69294495
H       50.02076689      48.62481157      51.11356050
H       49.55193464      48.56734954      49.31380449
H       48.39433470      50.40346066      50.20729058
H       49.91393149      51.12371209      50.96676236
H       49.60668520      51.27564089      49.22956644
H       51.61137959      49.94760448      48.91654387
