9
Lattice="100.0 0.0 0.0 0.0 100.0 0.0 0.0 0.0 100.0" Properties=species:S:1:pos:R:3 Energy=-97073.67083479908 Energy_pyscf=-97073.51888476378 pbc="F F F" Energy_pyscf_og=-97073.51873615633
C       49.98582897      49.31907211      49.83739755
C       49.43577483      50.70466418      49.89561915
O       51.34951849      49.51401157      49.56136407
H       49.91366931      48.84350217      50.77853268
H       49.51166340      48.85000444      48.95614072
H       48.30616535      50.43974335      49.87973443
H       49.65652063      51.20508742      50.82887364
H       49.80178336      51.30027312      48.92602795
H       51.84190078      49.78456790      50.34160715
