9
Lattice="100.0 0.0 0.0 0.0 100.0 0.0 0.0 0.0 100.0" Properties=species:S:1:pos:R:3 Energy=-97084.16154322663 Energy_pyscf=-97083.92584018811 pbc="F F F" Energy_pyscf_og=-97084.02412312097
C       49.85720366      49.30188577      50.05470446
C       49.37582394      50.75946206      50.11354493
O       51.25855587      49.46486348      49.65380538
H       49.79457580      48.92170769      51.04902620
H       49.32622588      48.77201166      49.23649243
H       48.32113936      50.86637966      50.30953391
H       49.90444173      51.32019133      50.90426069
H       49.63750673      51.18953838      49.16425942
H       51.68958484      48.57540552      49.70826429
