9
Lattice="100.0 0.0 0.0 0.0 100.0 0.0 0.0 0.0 100.0" Properties=species:S:1:pos:R:3 Energy=-97073.00478620127 Energy_pyscf=-97072.85919291167 pbc="F F F" Energy_pyscf_og=-97072.85921880779
C       50.12273378      49.20832761      50.16541803
C       49.41471222      50.56635140      50.17278530
O       51.45308287      49.32950436      49.57521813
H       50.36516051      48.70866556      51.15003730
H       49.29556701      48.54246665      49.67815306
H       48.43994834      50.65692845      50.66718891
H       50.06347025      51.48264664      50.60984187
H       49.40101197      50.86221600      48.97938967
H       51.22277047      50.05905785      48.95206012
