9
Lattice="100.0 0.0 0.0 0.0 100.0 0.0 0.0 0.0 100.0" Properties=species:S:1:pos:R:3 Energy=-97082.24085106124 Energy_pyscf=-97082.10493110742 pbc="F F F" Energy_pyscf_og=-97082.10007706653
C       50.15318380      49.26376785      49.94595818
C       49.50395784      50.62141846      50.11355035
O       51.53087762      49.33304742      49.80684939
H       49.97177154      48.79483547      50.95705457
H       49.57928086      48.61281157      49.23563292
H       48.49937602      50.31364082      50.44281280
H       49.87155461      51.12628077      51.03427956
H       49.45054299      51.27360772      49.14172760
H       51.71685029      49.67387568      48.93672222
