9
Lattice="100.0 0.0 0.0 0.0 100.0 0.0 0.0 0.0 100.0" Properties=species:S:1:pos:R:3 Energy=-97082.05876190636 Energy_pyscf=-97081.91355492397 pbc="F F F" Energy_pyscf_og=-97081.91545426483
C       50.13992479      49.36143835      50.08231585
C       49.51703463      50.76123690      50.11008250
O       51.59215689      49.49699633      49.74238748
H       50.17669759      48.92977298      51.15812719
H       49.68179741      48.64880237      49.29385207
H       49.76154942      51.27720501      51.08108877
H       50.04984416      51.29921587      49.26704405
H       48.40185567      50.77946228      49.91253663
H       51.64622319      49.84936374      48.84878724
