9
Lattice="100.0 0.0 0.0 0.0 100.0 0.0 0.0 0.0 100.0" Properties=species:S:1:pos:R:3 Energy=-97078.78872919623 Energy_pyscf=-97078.63690512633 pbc="F F F" Energy_pyscf_og=-97078.63706596717
C       50.14130248      49.23893718      50.12058884
C       49.46203307      50.70478687      50.13083737
O       51.49412922      49.45380624      49.70862295
H       50.23656937      48.80124036      51.17947167
H       49.66598900      48.50053789      49.55412616
H       48.41338284      50.75007016      50.51252442
H       50.14655654      51.29021437      50.82843050
H       49.57846574      51.16557207      49.18720472
H       51.37097523      49.23552858      48.75009578
