9
Lattice="100.0 0.0 0.0 0.0 100.0 0.0 0.0 0.0 100.0" Properties=species:S:1:pos:R:3 Energy=-97076.03537509128 Energy_pyscf=-97075.85696789403 pbc="F F F" Energy_pyscf_og=-97075.86243260792
C       50.10692756      49.34775497      49.94224844
C       49.42918851      50.76192568      49.94665096
O       51.47590195      49.48218217      49.70602564
H       49.96555133      48.75201397      50.94198419
H       49.66251952      48.87308875      49.12882307
H       49.54256732      51.13711160      50.99135791
H       50.06114705      51.26221741      49.15545750
H       48.43984424      50.83671144      49.55376120
H       51.56188669      50.38030372      49.35259810
