9
Lattice="100.0 0.0 0.0 0.0 100.0 0.0 0.0 0.0 100.0" Properties=species:S:1:pos:R:3 Energy=-97077.54604094481 Energy_pyscf=-97077.39709930944 pbc="F F F" Energy_pyscf_og=-97077.4035068989
C       50.05069245      49.24645855      49.75748458
C       49.39910153      50.71304453      49.81211057
O       51.40062048      49.33313126      49.62799060
H       49.74597050      48.80067606      50.80452585
H       49.61741021      48.62881220      48.95636851
H       48.24458942      50.53717141      49.90258723
H       49.78846809      51.22028230      50.79429249
H       49.77127456      51.42317002      49.10581930
H       51.77065973      50.04910331      50.23363122
