9
Lattice="100.0 0.0 0.0 0.0 100.0 0.0 0.0 0.0 100.0" Properties=species:S:1:pos:R:3 Energy=-97075.05198638944 Energy_pyscf=-97074.90211095424 pbc="F F F" Energy_pyscf_og=-97074.89766789175
C       50.04257146      49.34971384      49.98677013
C       49.48571399      50.80345114      50.06240464
O       51.40391008      49.42933288      49.37764914
H       50.03761336      48.79938433      51.00585368
H       49.39039790      48.66424515      49.26905077
H       48.45523728      50.72966244      50.35866211
H       50.04132197      51.28357160      50.89499658
H       49.27897715      51.37140836      49.13535048
H       51.52445913      48.59843813      49.02407925
