9
Lattice="100.0 0.0 0.0 0.0 100.0 0.0 0.0 0.0 100.0" Properties=species:S:1:pos:R:3 Energy=-97076.80891201079 Energy_pyscf=-97076.6473799222 pbc="F F F" Energy_pyscf_og=-97076.64894049654
C       50.04490563      49.23762651      50.19591718
C       49.43359120      50.61630352      50.30622094
O       51.37837115      49.32674265      49.84931773
H       50.03480241      48.83864590      51.21852257
H       49.55921440      48.47455929      49.44358709
H       48.57100309      50.59593958      50.91743013
H       50.13691835      51.34744318      50.52158057
H       49.19978634      50.86747878      49.22742557
H       51.52252667      49.41248624      48.87100340
