9
Lattice="100.0 0.0 0.0 0.0 100.0 0.0 0.0 0.0 100.0" Properties=species:S:1:pos:R:3 Energy=-97080.14341137587 Energy_pyscf=-97079.99740277542 pbc="F F F" Energy_pyscf_og=-97079.99556711694
C       50.03044842      49.35780301      49.78714369
C       49.42756360      50.68792398      49.89159792
O       51.44302412      49.29567253      49.48501425
H       49.98622392      48.92463205      50.77278061
H       49.51744140      48.78179300      49.00936128
H       48.33318638      50.53379204      49.79713868
H       49.52677347      51.19255181      50.87275455
H       49.71734306      51.36039881      49.04477119
H       51.81626143      49.82226604      50.30433745
