9
Lattice="100.0 0.0 0.0 0.0 100.0 0.0 0.0 0.0 100.0" Properties=species:S:1:pos:R:3 Energy=-97080.38536370466 Energy_pyscf=-97080.2314611486 pbc="F F F" Energy_pyscf_og=-97080.23218257254
C       50.16099460      49.28462705      50.17664853
C       49.42550773      50.66201518      50.15489856
O       51.52287906      49.28599615      49.75983363
H       50.15801740      48.71813614      51.08465706
H       49.44347662      48.67056550      49.45147387
H       48.54930626      50.61330914      50.88216885
H       49.96309380      51.60627402      50.44186464
H       49.04780961      50.79346713      49.16098628
H       51.52303348      49.78887519      48.87253094
