9
Lattice="100.0 0.0 0.0 0.0 100.0 0.0 0.0 0.0 100.0" Properties=species:S:1:pos:R:3 Energy=-97084.55307316582 Energy_pyscf=-97084.4091513593 pbc="F F F" Energy_pyscf_og=-97084.41097243481
C       49.92161746      49.35914638      49.99540408
C       49.43154062      50.77671944      50.08112606
O       51.31705349      49.50679242      49.81826586
H       49.69512841      48.79121016      50.97337552
H       49.42067451      48.68750512      49.28192348
H       48.37754171      50.87183641      50.43102510
H       49.96473441      51.32441382      50.83384247
H       49.48876236      51.27002545      49.08196065
H       51.59153304      48.58077548      49.70426259
