9
Lattice="100.0 0.0 0.0 0.0 100.0 0.0 0.0 0.0 100.0" Properties=species:S:1:pos:R:3 Energy=-97076.7341256331 Energy_pyscf=-97076.55981187236 pbc="F F F" Energy_pyscf_og=-97076.55980803953
C       49.95257962      49.22900779      49.78578134
C       49.38394237      50.62675671      50.00997373
O       51.40946612      49.24162296      49.37443875
H       49.95031705      48.65520990      50.82568042
H       49.33348619      48.72627987      49.01512801
H       49.68046149      51.32947579      49.21724638
H       48.32963945      50.50254729      49.80730213
H       49.59299863      50.95334577      51.00473516
H       51.80167758      48.73182637      50.17813995
