9
Lattice="100.0 0.0 0.0 0.0 100.0 0.0 0.0 0.0 100.0" Properties=species:S:1:pos:R:3 Energy=-97078.61927911316 Energy_pyscf=-97078.48460297644 pbc="F F F" Energy_pyscf_og=-97078.4757997433
C       50.13135350      49.24881745      50.07563416
C       49.36884768      50.59318884      50.18413618
O       51.54677166      49.15382752      49.69917434
H       50.19566795      48.64715766      50.94674528
H       49.56029058      48.74956074      49.29637400
H       48.24811221      50.46995282      50.31113838
H       49.82525869      51.19303430      50.93159790
H       49.55454851      51.17672217      49.24346655
H       51.80976378      49.77135322      48.96410210
