9
Lattice="100.0 0.0 0.0 0.0 100.0 0.0 0.0 0.0 100.0" Properties=species:S:1:pos:R:3 Energy=-97079.33994909555 Energy_pyscf=-97079.2019605509 pbc="F F F" Energy_pyscf_og=-97079.20106336226
C       50.10084217      49.19195891      50.01910146
C       49.40292583      50.61534655      50.15452746
O       51.52440693      49.26958557      49.76896903
H       50.16234889      48.75714859      50.94748045
H       49.54563055      48.58783761      49.29571953
H       48.34020831      50.36491140      50.24523809
H       49.93174722      51.17601396      51.02480545
H       49.59224357      51.29016748      49.24003900
H       51.67436626      49.76814888      48.92303338
