9
Lattice="100.0 0.0 0.0 0.0 100.0 0.0 0.0 0.0 100.0" Properties=species:S:1:pos:R:3 Energy=-97072.14927421077 Energy_pyscf=-97071.9978417457 pbc="F F F" Energy_pyscf_og=-97071.99391658643
C       49.93135701      49.23750280      49.89545409
C       49.31534459      50.65306382      49.97869990
O       51.25274589      49.39941754      49.54764529
H       49.76292319      48.68812188      50.92349627
H       49.57980046      48.68133980      49.08786310
H       49.98268952      51.20865209      49.17640464
H       48.23809728      50.46874119      49.85392979
H       49.48301157      50.98329987      51.02406733
H       51.86052294      48.63709684      49.74532153
