9
Lattice="100.0 0.0 0.0 0.0 100.0 0.0 0.0 0.0 100.0" Properties=species:S:1:pos:R:3 Energy=-97076.97516767154 Energy_pyscf=-97076.83222072673 pbc="F F F" Energy_pyscf_og=-97076.83513058434
C       49.92543941      49.38738611      50.01898864
C       49.35432525      50.82378784      50.13965397
O       51.33538283      49.51290333      49.72737868
H       49.72580026      48.85659114      50.90145455
H       49.32907896      48.86944357      49.21870565
H       48.27368982      50.76814621      50.45442775
H       50.07426905      51.33119093      50.82217699
H       49.51280854      51.11773985      49.08024144
H       51.67497414      48.49809812      49.84792331
