9
Lattice="100.0 0.0 0.0 0.0 100.0 0.0 0.0 0.0 100.0" Properties=species:S:1:pos:R:3 Energy=-97079.22510766613 Energy_pyscf=-97079.08346946514 pbc="F F F" Energy_pyscf_og=-97079.08603897475
C       49.99933629      49.34645533      49.82995337
C       49.40149782      50.65282360      49.95104835
O       51.46597432      49.33760763      49.57883618
H       49.77572856      48.79204677      50.74557910
H       49.60064375      48.83715808      48.97689753
H       48.29009229      50.57225449      49.75096831
H       49.70344911      51.26180188      50.91867669
H       49.71784792      51.16846286      49.07486061
H       51.84399355      49.98902184      50.18989523
