9
Lattice="100.0 0.0 0.0 0.0 100.0 0.0 0.0 0.0 100.0" Properties=species:S:1:pos:R:3 Energy=-97075.6749865321 Energy_pyscf=-97075.52314090813 pbc="F F F" Energy_pyscf_og=-97075.52482417406
C       50.24052418      49.33949441      50.19080143
C       49.58079930      50.69694352      50.18356907
O       51.53793882      49.17054767      49.69081967
H       50.07780329      48.89083802      51.14223180
H       49.55595993      48.84589457      49.57656987
H       48.49942299      50.52448281      50.50714953
H       50.04412155      51.49093555      50.78328122
H       49.34720902      51.09122156      49.19271044
H       51.63150732      49.11861614      48.67212670
