9
Lattice="100.0 0.0 0.0 0.0 100.0 0.0 0.0 0.0 100.0" Properties=species:S:1:pos:R:3 Energy=-97072.24013054321 Energy_pyscf=-97072.07752919356 pbc="F F F" Energy_pyscf_og=-97072.0830585865
C       50.02625381      49.45300848      49.82138316
C       49.37978059      50.74458037      49.88847364
O       51.55754575      49.42899796      49.68433922
H       49.85455557      48.83429479      50.76034715
H       49.63265178      48.80223112      49.01372643
H       49.87029345      51.36439205      50.86611565
H       49.72713070      51.26741402      49.01494432
H       48.27335524      50.62090309      49.81992948
H       51.91870375      50.32488124      49.83026647
