9
Lattice="100.0 0.0 0.0 0.0 100.0 0.0 0.0 0.0 100.0" Properties=species:S:1:pos:R:3 Energy=-97077.93609792163 Energy_pyscf=-97077.80112432814 pbc="F F F" Energy_pyscf_og=-97077.79664477288
C       50.11384071      49.33385428      50.07226716
C       49.56021896      50.73306869      50.06491549
O       51.53233922      49.66661714      49.83820839
H       50.03297634      48.77878982      51.04720358
H       49.78344897      48.59433452      49.32019986
H       49.91971387      51.29428786      50.92469892
H       49.99121244      51.13265129      49.14810252
H       48.43990710      50.89101157      50.10799960
H       51.58054974      50.01001777      48.97531112
