9
Lattice="100.0 0.0 0.0 0.0 100.0 0.0 0.0 0.0 100.0" Properties=species:S:1:pos:R:3 Energy=-97079.52962848768 Energy_pyscf=-97079.37542950321 pbc="F F F" Energy_pyscf_og=-97079.3785845067
C       49.88521147      49.35898029      49.88992455
C       49.24264366      50.70971731      49.99052855
O       51.17596343      49.20501171      49.51671085
H       49.66504199      48.89169823      50.88578983
H       49.19792994      48.78905227      49.24107334
H       48.19794021      50.72070066      50.46363104
H       49.91401094      51.31463153      50.75372102
H       49.13534120      51.28200601      49.00884596
H       51.76118300      49.24636698      50.34739197
