9
Lattice="100.0 0.0 0.0 0.0 100.0 0.0 0.0 0.0 100.0" Properties=species:S:1:pos:R:3 Energy=-97072.02370411069 Energy_pyscf=-97071.85805957808 pbc="F F F" Energy_pyscf_og=-97071.85564259547
C       49.89479400      49.34732074      49.97974454
C       49.35579987      50.75565283      49.93745027
O       51.20670134      49.28326837      49.50643646
H       49.57827296      48.86685473      50.94670894
H       49.28549589      48.79101907      49.27997844
H       48.34098187      50.67458427      50.36862330
H       49.78648341      51.38381296      50.81091143
H       48.96371063      51.30709029      48.99528992
H       51.76014101      49.09104907      50.26584765
