9
Lattice="100.0 0.0 0.0 0.0 100.0 0.0 0.0 0.0 100.0" Properties=species:S:1:pos:R:3 Energy=-97073.44287309897 Energy_pyscf=-97073.30075095111 pbc="F F F" Energy_pyscf_og=-97073.2959610222
C       50.18342605      49.25463323      50.16526196
C       49.48774442      50.69050309      50.11273704
O       51.58986135      49.23401739      49.69008851
H       50.07126689      48.83768698      51.24121781
H       49.61235549      48.51582784      49.50779011
H       48.42732107      50.69756926      50.56944805
H       50.19442734      51.36856139      50.66142399
H       49.45286369      51.15008739      49.24123184
H       51.50515707      49.41131089      48.77532344
