9
Lattice="100.0 0.0 0.0 0.0 100.0 0.0 0.0 0.0 100.0" Properties=species:S:1:pos:R:3 Energy=-97073.60172542556 Energy_pyscf=-97073.42229570632 pbc="F F F" Energy_pyscf_og=-97073.41817189008
C       50.09091476      49.35277612      50.15348258
C       49.33148272      50.65571339      50.21775902
O       51.49483982      49.64298639      49.74433539
H       49.96666313      48.66271023      51.03389321
H       49.67101879      48.61465897      49.41969327
H       48.59409618      50.59785938      51.02978671
H       49.96306058      51.57580978      50.37082275
H       49.08025615      50.87259566      49.21028291
H       51.60011114      49.45928756      48.79274027
