9
Lattice="100.0 0.0 0.0 0.0 100.0 0.0 0.0 0.0 100.0" Properties=species:S:1:pos:R:3 Energy=-97076.22381756811 Energy_pyscf=-97076.0921429507 pbc="F F F" Energy_pyscf_og=-97076.07945954046
C       50.12175727      49.17607910      50.15483913
C       49.47682453      50.61733651      50.15310841
O       51.51706837      49.18497690      49.69500002
H       50.15540431      49.01958939      51.21061101
H       49.46754820      48.55936373      49.44830894
H       48.48352856      50.65896665      50.66953750
H       50.18295079      51.28199102      50.62926863
H       49.54342020      51.10126593      49.15210697
H       51.57096940      49.55324030      48.85726460
