9
Lattice="100.0 0.0 0.0 0.0 100.0 0.0 0.0 0.0 100.0" Properties=species:S:1:pos:R:3 Energy=-97082.13747179521 Energy_pyscf=-97082.35780282269 pbc="F F F" Energy_pyscf_og=-97081.99221338569
C       49.78553555      49.35578105      49.97266791
C       49.14090136      50.71434150      49.83792622
O       51.11347095      49.25141230      49.47010395
H       49.92386837      49.02102523      51.06080601
H       49.14884224      48.55793462      49.44880935
H       48.24947987      50.62064489      50.44546531
H       49.71791362      51.55690459      50.33139608
H       48.93609429      51.06962162      48.85781567
H       51.37877227      48.32512734      49.67272015
