9
Lattice="100.0 0.0 0.0 0.0 100.0 0.0 0.0 0.0 100.0" Properties=species:S:1:pos:R:3 Energy=-97077.32076706797 Energy_pyscf=-97077.16683944849 pbc="F F F" Energy_pyscf_og=-97077.16167619017
C       50.03512405      49.35684406      49.97614270
C       49.36509480      50.73550210      50.06695312
O       51.42688346      49.35849227      49.55521126
H       49.93530947      48.89871624      50.96977548
H       49.52124263      48.75218406      49.17508627
H       48.41193118      50.83941487      50.70017594
H       50.03404664      51.30603910      50.68573912
H       49.36976477      51.20239325      49.13073356
H       51.60607504      48.61737054      48.86813648
