9
Lattice="100.0 0.0 0.0 0.0 100.0 0.0 0.0 0.0 100.0" Properties=species:S:1:pos:R:3 Energy=-97075.33857538165 Energy_pyscf=-97075.1962668054 pbc="F F F" Energy_pyscf_og=-97075.19722929783
C       50.15745929      49.24847689      50.13525113
C       49.41919288      50.61332859      50.11409329
O       51.57562572      49.39091298      49.69815562
H       50.03004169      48.78988857      51.16608958
H       49.51626832      48.56670118      49.59726289
H       48.59405107      50.55319870      50.78530325
H       49.88240172      51.47562403      50.53437987
H       49.12814748      51.02454597      49.16783338
H       51.47142608      49.75998737      48.75638190
