9
Lattice="100.0 0.0 0.0 0.0 100.0 0.0 0.0 0.0 100.0" Properties=species:S:1:pos:R:3 Energy=-97080.88568746074 Energy_pyscf=-97080.73389792546 pbc="F F F" Energy_pyscf_og=-97080.73034759409
C       50.05085486      49.22641121      49.96119760
C       49.35997881      50.62582174      50.13654622
O       51.46872242      49.20365384      49.84966918
H       49.92472185      48.76371550      50.96451919
H       49.62459800      48.52297848      49.23046940
H       49.62369000      51.41664912      49.41555965
H       48.25965249      50.51397988      49.88403954
H       49.58834349      50.91103534      51.19611913
H       51.61652027      49.77613755      49.01874899
