9
Lattice="100.0 0.0 0.0 0.0 100.0 0.0 0.0 0.0 100.0" Properties=species:S:1:pos:R:3 Energy=-97079.9161450849 Energy_pyscf=-97079.77901628485 pbc="F F F" Energy_pyscf_og=-97079.7797718925
C       50.04635701      49.28151627      50.17436789
C       49.54081939      50.70376036      50.10663810
O       51.44513635      49.30738235      49.75737534
H       50.19980125      48.89273709      51.23898268
H       49.50390584      48.51589607      49.52528797
H       48.53826677      50.63724245      50.54373379
H       50.16878661      51.27158188      50.74776467
H       49.60588863      51.07355413      49.11271038
H       51.51212538      49.49268108      48.73815533
