9
Lattice="100.0 0.0 0.0 0.0 100.0 0.0 0.0 0.0 100.0" Properties=species:S:1:pos:R:3 Energy=-97074.30669176686 Energy_pyscf=-97074.14746990148 pbc="F F F" Energy_pyscf_og=-97074.14825531274
C       49.96330841      49.24117961      49.82134791
C       49.44114059      50.58505418      49.92739624
O       51.43766189      49.34328446      49.59566909
H       49.72428946      48.63751072      50.64756336
H       49.55431186      48.65726869      48.95584619
H       49.44179386      51.29161080      49.12556571
H       48.38609511      50.56086564      50.17787240
H       49.67133995      51.05546839      50.83976579
H       51.75557516      48.61138446      50.14375669
