9
Lattice="100.0 0.0 0.0 0.0 100.0 0.0 0.0 0.0 100.0" Properties=species:S:1:pos:R:3 Energy=-97081.1520482935 Energy_pyscf=-97080.9830024894 pbc="F F F"
C       50.15289936      49.40395619      50.07754815
C       49.52478377      50.74651252      50.12744858
O       51.43130684      49.41001130      49.45472398
H       50.43112805      49.06416372      51.07799160
H       49.37942748      48.77760224      49.59285701
H       49.94749183      51.48644623      50.90490748
H       49.63401502      51.27913184      49.13945211
H       48.45146052      50.64893779      50.10691676
H       51.48484833      50.09524182      48.76334581
