9
Lattice="100.0 0.0 0.0 0.0 100.0 0.0 0.0 0.0 100.0" Properties=species:S:1:pos:R:3 Energy=-97076.7996058018 Energy_pyscf=-97076.65612662034 pbc="F F F"
C       50.56535800      49.58879385      50.13525922
C       49.44800443      50.13658457      49.28782722
O       51.29530457      50.63322900      50.69707453
H       50.18767161      48.77358526      50.80177170
H       51.29148386      49.09425957      49.42818033
H       48.68155473      49.52504929      48.65014822
H       48.76944020      50.64413108      49.97506987
H       49.84078182      51.04298172      48.65663540
H       50.95844143      51.27858224      51.36525602
