9
Lattice="100.0 0.0 0.0 0.0 100.0 0.0 0.0 0.0 100.0" Properties=species:S:1:pos:R:3 Energy=-97081.6501807815 Energy_pyscf=-97081.49890185034 pbc="F F F"
C       50.26500379      49.68929770      50.36046947
C       49.07551514      50.28409650      49.68838045
O       50.98784239      50.70060855      51.07999235
H       50.08198779      48.91981915      51.08962322
H       50.82865227      49.14455810      49.49890686
H       49.43048850      50.89843758      48.85518987
H       48.54886924      49.52904539      49.15696167
H       48.36654320      50.89451316      50.24463407
H       51.60765877      51.14243164      50.53815831
