9
Lattice="100.0 0.0 0.0 0.0 100.0 0.0 0.0 0.0 100.0" Properties=species:S:1:pos:R:3 Energy=-97068.98290931185 Energy_pyscf=-97068.83009159396 pbc="F F F"
C       50.24032976      49.60346747      50.16031736
C       49.02581765      50.21147417      49.59408549
O       51.12081103      50.53846442      50.80586517
H       50.05679012      48.83023044      50.93960483
H       50.80101986      48.99652155      49.40488822
H       48.13407576      49.51507237      49.14816978
H       48.53666740      51.05019380      50.17403680
H       49.48269367      50.78675324      48.71301879
H       51.36400117      50.63419441      51.73308773
