9
Lattice="100.0 0.0 0.0 0.0 100.0 0.0 0.0 0.0 100.0" Properties=species:S:1:pos:R:3 Energy=-97082.13747179521 Energy_pyscf=-97081.99616119318 pbc="F F F"
C       50.27297654      49.78583287      50.16141179
C       49.12475008      50.31169794      49.33399813
O       51.05425727      50.77714077      50.82310455
H       49.93199531      49.04399439      50.96772420
H       51.05334507      49.25431368      49.51609012
H       48.64728155      49.39658306      48.98517195
H       48.28446499      50.81064481      49.91018493
H       49.37557048      50.97973429      48.55448815
H       51.61194689      50.26227113      51.45184871
