9
Lattice="100.0 0.0 0.0 0.0 100.0 0.0 0.0 0.0 100.0" Properties=species:S:1:pos:R:3 Energy=-97081.32222255137 Energy_pyscf=-97081.15254567537 pbc="F F F"
C       50.15654391      49.72625392      50.52923453
C       48.95139855      50.32489347      49.73821333
O       50.96058760      50.75536850      51.15974944
H       49.70287020      49.00837705      51.35222838
H       50.69979045      49.02834739      49.93332517
H       49.23677847      50.57008209      48.71699150
H       48.18312485      49.57606941      49.56079110
H       48.45645158      51.06178258      50.35381411
H       51.87769235      50.44918836      51.09785166
