9
Lattice="100.0 0.0 0.0 0.0 100.0 0.0 0.0 0.0 100.0" Properties=species:S:1:pos:R:3 Energy=-97075.96669555108 Energy_pyscf=-97075.80076386288 pbc="F F F"
C       50.58986173      49.52457580      50.49956810
C       49.41012765      50.17397547      49.67964135
O       51.25113882      50.64847629      51.25232840
H       50.28546635      48.85201720      51.35658314
H       51.41165932      49.03933113      49.84733404
H       49.32016305      51.17512320      49.99712719
H       49.32871942      50.16427120      48.54491764
H       48.52445286      49.66496766      50.11709294
H       51.69724129      51.21679769      50.57083892
