9
Lattice="100.0 0.0 0.0 0.0 100.0 0.0 0.0 0.0 100.0" Properties=species:S:1:pos:R:3 Energy=-97068.98290931185 Energy_pyscf=-97068.87775814299 pbc="F F F"
C       50.23453481      49.60434331      50.16010917
C       49.02013396      50.21217985      49.59351804
O       51.11127605      50.53851225      50.81176070
H       50.05197551      48.82658020      50.93431604
H       50.79863318      49.00255602      49.40220995
H       48.13242644      49.51570752      49.13890025
H       48.52766987      51.04705091      50.17795046
H       49.47624165      50.79227593      48.71662817
H       51.35241989      50.63025757      51.73987308
