9
Lattice="100.0 0.0 0.0 0.0 100.0 0.0 0.0 0.0 100.0" Properties=species:S:1:pos:R:3 Energy=-97077.59897098492 Energy_pyscf=-97077.42524850075 pbc="F F F"
C       50.58023970      49.61388658      50.45564946
C       49.38274447      50.16149354      49.76017429
O       51.34698754      50.58863519      51.26467665
H       50.23778723      48.87085640      51.29095491
H       51.36607398      48.99732916      49.79661550
H       49.29460772      51.27688264      49.89892874
H       49.39891146      50.05353877      48.62460055
H       48.54337716      49.62609764      50.10567330
H       51.67401087      51.27246858      50.66517415
