9
Lattice="100.0 0.0 0.0 0.0 100.0 0.0 0.0 0.0 100.0" Properties=species:S:1:pos:R:3 Energy=-97075.4594745999 Energy_pyscf=-97075.30354348221 pbc="F F F"
C       50.52882007      49.73916654      50.10830946
C       49.50791747      50.42054242      49.23297426
O       51.43165571      50.69231472      50.73042759
H       50.00343197      49.08208344      50.88693947
H       51.01541860      49.11591423      49.30263903
H       48.71045776      49.69168160      48.86352362
H       48.71070262      51.06297850      49.72346120
H       50.05502237      51.14491354      48.47420270
H       51.62566297      50.24752599      51.62286007
