9
Lattice="100.0 0.0 0.0 0.0 100.0 0.0 0.0 0.0 100.0" Properties=species:S:1:pos:R:3 Energy=-97078.25038174263 Energy_pyscf=-97078.09190371528 pbc="F F F"
C       50.02962159      49.27579520      50.03701818
C       49.42651595      50.73852021      50.09898568
O       51.38205333      49.30300591      49.63590730
H       50.08418531      48.89659055      51.02210143
H       49.42344927      48.73748122      49.21654245
H       48.42817969      50.84008266      50.41814701
H       50.07988853      51.25924567      50.80879662
H       49.37436271      51.22460723      49.09967381
H       51.49531379      48.78184432      48.80201697
