9
Lattice="100.0 0.0 0.0 0.0 100.0 0.0 0.0 0.0 100.0" Properties=species:S:1:pos:R:3 Energy=-97081.46940103179 Energy_pyscf=-97081.32416038655 pbc="F F F"
C       49.90352021      49.36739009      50.02915583
C       49.41136506      50.80816741      50.12108642
O       51.37876333      49.49098702      49.81140955
H       49.76911287      48.87842607      51.01259931
H       49.34190814      48.70139279      49.23048553
H       48.30387117      50.81839946      50.32601459
H       49.94712970      51.33430345      50.85752337
H       49.54284938      51.24667978      49.14753192
H       51.57945624      48.50644334      49.66224001
