9
Lattice="100.0 0.0 0.0 0.0 100.0 0.0 0.0 0.0 100.0" Properties=species:S:1:pos:R:3 Energy=-97073.44287309897 Energy_pyscf=-97073.30422112769 pbc="F F F"
C       50.30838295      49.68585552      50.38092615
C       49.08099010      50.29110212      49.55894659
O       51.10825173      50.69226215      51.12360085
H       49.90338677      48.84435524      51.06809190
H       51.03391857      49.15812964      49.67437733
H       49.27890080      50.98328186      48.88538078
H       48.42322364      49.48129706      49.06458481
H       48.51313869      50.90561599      50.30748819
H       51.51456358      51.18422025      50.43928778
