9
Lattice="100.0 0.0 0.0 0.0 100.0 0.0 0.0 0.0 100.0" Properties=species:S:1:pos:R:3 Energy=-97081.83991423859 Energy_pyscf=-97081.68941472405 pbc="F F F"
C       50.15965644      49.62112554      50.50988053
C       48.97931196      50.25947920      49.75924896
O       50.80236553      50.77055950      50.98833042
H       49.74660262      48.94888413      51.33774333
H       50.70609485      49.03902826      49.80214749
H       49.26770635      50.56265390      48.76500516
H       48.09797292      49.57465048      49.65220873
H       48.67757370      51.18937425      50.41797954
H       51.70364059      50.55642700      51.21747258
