9
Lattice="100.0 0.0 0.0 0.0 100.0 0.0 0.0 0.0 100.0" Properties=species:S:1:pos:R:3 Energy=-97079.69152442848 Energy_pyscf=-97079.84821155704 pbc="F F F"
C       50.07575783      49.35390269      49.89782003
C       49.43209778      50.80716537      49.93404553
O       51.51693776      49.40126322      49.75535531
H       49.81244898      48.73144084      50.84156185
H       49.76557404      48.78794105      48.96248585
H       49.91054499      51.37627640      50.83698019
H       49.64991437      51.25853313      48.94743819
H       48.37541811      50.73709442      49.88060442
H       51.71337396      50.34590168      49.83866901
