9
Lattice="100.0 0.0 0.0 0.0 100.0 0.0 0.0 0.0 100.0" Properties=species:S:1:pos:R:3 Energy=-97080.25814596613 Energy_pyscf=-97080.4906979301 pbc="F F F"
C       49.74720042      49.32532905      50.00740308
C       49.08024942      50.71712104      49.90520853
O       51.06224107      49.32913650      49.50644865
H       49.80834332      48.91719164      51.02762609
H       49.16980619      48.55057011      49.51473603
H       48.10537865      50.78791848      50.45288483
H       49.89249179      51.29761231      50.25450018
H       48.98641709      51.05865290      48.83480311
H       51.52076992      48.49801307      49.58884635
