12
Lattice="100.0 0.0 0.0 0.0 100.0 0.0 0.0 0.0 100.0" Properties=species:S:1:pos:R:3 Energy=-259797.390625 Energy_pyscf=-259802.67013668787 Energy_nn=-259798.9375 pbc="F F F"
C       51.41115942      50.24669358      50.06166413
C       51.11965412      48.88797813      49.99597660
N       49.85734809      48.43638061      50.10294409
C       48.72191603      49.27797403      50.08324846
N       48.94289479      50.54433951      49.83039457
C       50.29379498      51.14836653      49.76815165
O       47.56746100      48.73100989      50.20759511
O       50.28919169      52.33503552      49.76563112
H       51.71242014      48.05515721      49.83825755
H       49.73039419      47.51904901      49.83886485
H       48.16471042      51.13161547      50.04495721
H       52.34925170      50.70409935      49.71143829
