12
Lattice="100.0 0.0 0.0 0.0 100.0 0.0 0.0 0.0 100.0" Properties=species:S:1:pos:R:3 Energy=-259816.859375 Energy_pyscf=-259812.8118262526 pbc="F F F"
C       51.30926975      50.31541815      49.78297918
C       51.16654113      48.96952512      50.16992937
N       49.89324110      48.45206689      50.42714124
C       48.75272570      49.24912368      50.10504197
N       49.04703443      50.62772120      50.21753601
C       50.30059434      51.24922755      49.85806118
O       47.65442618      48.73451654      49.94551426
O       50.41680165      52.44605569      49.88082909
H       51.94841540      48.24039811      50.11876107
H       49.67003469      47.47223672      50.51429430
H       48.17098838      51.09404833      49.79800460
H       52.25925833      50.77465608      49.47084732
