12
Lattice="100.0 0.0 0.0 0.0 100.0 0.0 0.0 0.0 100.0" Properties=species:S:1:pos:R:3 Energy=-259800.6875 Energy_pyscf=-259795.46418919705 Energy_nn=-259803.03125 pbc="F F F"
C       51.34725815      50.30178210      49.89391124
C       51.12870192      48.92142282      50.04351597
N       49.83077527      48.45552167      50.16020605
C       48.75691574      49.24221146      50.07824513
N       48.88671600      50.62471627      50.25751510
C       50.30191226      51.16671763      50.00741262
O       47.63710557      48.77561554      50.07022628
O       50.31798540      52.44350433      49.71277385
H       51.92633162      48.15754165      50.17031215
H       49.53006022      47.37775149      50.02212770
H       48.01907175      51.21166216      50.18997308
H       52.34341748      50.62290614      50.04491652
