12
Lattice="100.0 0.0 0.0 0.0 100.0 0.0 0.0 0.0 100.0" Properties=species:S:1:pos:R:3 Energy=-259826.65625 Energy_pyscf=-259824.76077324772 Energy_nn=-259825.484375 pbc="F F F"
C       51.53956220      50.44251772      50.00098340
C       51.28994239      49.09616108      50.06106453
N       50.00447193      48.56655376      50.13704464
C       48.84350410      49.39877047      50.15033582
N       49.11047313      50.69087427      49.87830905
C       50.36264939      51.37133161      49.86912659
O       47.72186123      48.89448382      50.25206618
O       50.40640712      52.56957943      49.82197963
H       52.05073963      48.31868345      50.22033227
H       49.83797089      47.61854477      50.35624444
H       48.29492477      51.27840643      49.68236832
H       52.45528439      50.98380377      50.10807297
