12
Lattice="100.0 0.0 0.0 0.0 100.0 0.0 0.0 0.0 100.0" Properties=species:S:1:pos:R:3 Energy=-259811.59375 Energy_pyscf=-259811.31663200274 pbc="F F F"
C       51.49811188      50.41566010      49.79237690
C       51.25867589      49.07884451      50.00316815
N       49.92505313      48.55063422      49.95891051
C       48.75234690      49.35422751      50.05238972
N       49.07509320      50.72202353      49.92071356
C       50.29004349      51.28239501      49.76909716
O       47.59885590      49.04876114      50.11863518
O       50.33801104      52.53274795      49.64139189
H       51.90605047      48.24363323      50.19610826
H       49.77598329      47.46421167      50.05117557
H       48.33538003      51.41869864      50.07291693
H       52.41520258      51.01204322      50.18177791
