12
Lattice="100.0 0.0 0.0 0.0 100.0 0.0 0.0 0.0 100.0" Properties=species:S:1:pos:R:3 Energy=-259818.3125 Energy_pyscf=-259816.22614724326 Energy_nn=-259817.609375 pbc="F F F"
C       51.32314365      50.24439900      49.99073727
C       51.13040256      48.92696550      49.93684146
N       49.85176966      48.41770492      50.07468830
C       48.67905894      49.24371901      50.10097212
N       48.86999908      50.59044586      49.81476805
C       50.27373957      51.17653368      49.79687643
O       47.58568261      48.73369879      50.34368546
O       50.43011024      52.35016675      49.73862013
H       51.86674757      48.14591768      49.72860737
H       49.69623329      47.48001060      49.88061084
H       48.08745352      51.18569551      49.93776386
H       52.34963560      50.58715420      49.92529338
