12
Lattice="100.0 0.0 0.0 0.0 100.0 0.0 0.0 0.0 100.0" Properties=species:S:1:pos:R:3 Energy=-259811.578125 Energy_pyscf=-259814.7203007831 Energy_nn=-259810.46875 pbc="F F F"
C       51.38012202      50.29414603      49.83534080
C       51.06576967      48.95494846      50.09925300
N       49.83501592      48.39441624      50.22328940
C       48.69651583      49.22372829      50.13573819
N       48.96295517      50.55744448      50.22927399
C       50.22951891      51.23997146      49.87472742
O       47.55004436      48.85950308      50.05334201
O       50.21505649      52.44748243      49.80134815
H       51.88794807      48.20796243      50.24661198
H       49.68058607      47.47915717      49.95460347
H       48.14763688      51.13803631      50.21182913
H       52.40517366      50.45330424      50.04112042
