12
Lattice="100.0 0.0 0.0 0.0 100.0 0.0 0.0 0.0 100.0" Properties=species:S:1:pos:R:3 Energy=-259798.671875 Energy_pyscf=-259798.4424422371 Energy_nn=-259798.203125 pbc="F F F"
C       51.32022829      50.16892322      50.05458711
C       51.05570774      48.81468322      50.01970579
N       49.76865116      48.39668066      50.03839591
C       48.68101936      49.21116254      50.05915979
N       48.91004066      50.74673683      50.05757167
C       50.20070342      51.24044927      49.94206046
O       47.63652009      48.72808757      50.37190419
O       50.35222760      52.48035029      49.97566610
H       51.88185317      48.17392315      49.76841363
H       49.59282585      47.30184164      50.04679158
H       48.13674045      51.32653554      50.06603159
H       52.26114213      50.63153835      49.67127004
