12
Lattice="100.0 0.0 0.0 0.0 100.0 0.0 0.0 0.0 100.0" Properties=species:S:1:pos:R:3 Energy=-259802.9375 Energy_pyscf=-259806.13105797357 Energy_nn=-259803.953125 pbc="F F F"
C       51.40019793      50.17033910      49.61466879
C       51.15389523      48.88566316      49.96091931
N       49.90990511      48.50379821      50.46931010
C       48.79892185      49.18343887      50.14956278
N       49.08951856      50.51158478      49.62681527
C       50.36382241      51.15140591      49.74875405
O       47.74765961      48.59419577      50.00855292
O       50.42567943      52.38832089      49.93790216
H       51.70373992      47.98536894      49.99284847
H       49.85243248      47.50874829      50.66864503
H       48.35525354      51.12469713      49.73193843
H       52.38822246      50.52750766      49.32477251
