12
Lattice="100.0 0.0 0.0 0.0 100.0 0.0 0.0 0.0 100.0" Properties=species:S:1:pos:R:3 Energy=-259791.15625 Energy_pyscf=-259794.1383345719 Energy_nn=-259792.90625 pbc="F F F"
C       51.40334485      50.13462998      50.02380565
C       51.09480941      48.85799292      50.00336883
N       49.73573383      48.39506482      49.98781051
C       48.57686771      49.26054905      50.08058765
N       48.99348784      50.62696466      49.72719031
C       50.23599023      51.10729779      49.74578716
O       47.54524941      48.64920640      50.25595140
O       50.21096534      52.37227438      49.50576500
H       51.79029169      48.10373772      50.26466913
H       49.57740088      47.44021818      50.14189730
H       48.05552199      51.19954696      49.67598797
H       52.45090948      50.54220251      49.90136605
