12
Lattice="100.0 0.0 0.0 0.0 100.0 0.0 0.0 0.0 100.0" Properties=species:S:1:pos:R:3 Energy=-259812.390625 Energy_pyscf=-259811.96260613296 Energy_nn=-259812.578125 pbc="F F F"
C       51.41085153      50.27862588      49.75383953
C       51.19739500      48.94220292      50.11436551
N       49.90417958      48.47924451      50.26467370
C       48.77204227      49.28978458      50.03086435
N       49.02072861      50.57948139      50.04267222
C       50.25806659      51.26125813      49.89419804
O       47.67667745      48.74221522      50.12514096
O       50.27495397      52.42693742      49.80946864
H       51.87513762      48.09977564      50.25254815
H       49.65095047      47.53428989      50.51539738
H       48.21618665      51.12236491      49.95784064
H       52.33162468      50.90952949      49.54828153
