12
Lattice="100.0 0.0 0.0 0.0 100.0 0.0 0.0 0.0 100.0" Properties=species:S:1:pos:R:3 Energy=-259811.109375 Energy_pyscf=-259811.63595507844 pbc="F F F"
C       51.32792157      50.18681680      49.94885170
C       51.03833486      48.90202237      49.96028868
N       49.74062383      48.49872159      50.22979162
C       48.60322779      49.20155485      50.06827560
N       48.89531453      50.66996899      49.75656775
C       50.19331249      51.19500184      49.93811156
O       47.51534290      48.67902833      50.05217386
O       50.46738741      52.40395701      49.86180947
H       51.82723883      48.13768146      49.75976861
H       49.57881390      47.50334093      50.19265375
H       48.03165027      51.29431277      49.97374900
H       52.30946765      50.54508254      49.83730141
