12
Lattice="100.0 0.0 0.0 0.0 100.0 0.0 0.0 0.0 100.0" Properties=species:S:1:pos:R:3 Energy=-259810.296875 Energy_pyscf=-259812.20378279313 pbc="F F F"
C       51.34014519      50.30884999      49.99138757
C       51.08963855      49.00388994      49.84169449
N       49.85019680      48.38665014      50.02161260
C       48.65761082      49.24736336      50.11867282
N       48.97547574      50.56761111      50.00093673
C       50.25848897      51.26434669      50.04442379
O       47.44243601      48.79738240      50.19471309
O       50.32508909      52.46640287      50.11661942
H       51.88374134      48.22194473      49.64234538
H       49.79868799      47.57094982      50.60919478
H       48.10285983      51.14353841      49.80901405
H       52.35795025      50.67260340      49.99569940
