12
Lattice="100.0 0.0 0.0 0.0 100.0 0.0 0.0 0.0 100.0" Properties=species:S:1:pos:R:3 Energy=-259819.40625 Energy_pyscf=-259817.3328913057 Energy_nn=-259818.921875 pbc="F F F"
C       51.35953719      50.25177497      50.05177096
C       51.11560283      48.93951441      49.93738022
N       49.85126001      48.43554212      50.16545871
C       48.69316931      49.19693722      50.08684070
N       48.97291041      50.57276215      49.91207332
C       50.18984036      51.24435069      49.92148522
O       47.52625570      48.82704169      50.20440072
O       50.23556095      52.50713335      49.87172102
H       51.93378819      48.23933268      49.69670284
H       49.66013868      47.45114731      50.31900419
H       48.22654023      51.17846191      50.11049071
H       52.35216263      50.74509846      50.13378952
