12
Lattice="100.0 0.0 0.0 0.0 100.0 0.0 0.0 0.0 100.0" Properties=species:S:1:pos:R:3 Energy=-259817.703125 Energy_pyscf=-259817.11328216203 pbc="F F F"
C       51.28647738      50.33239864      49.86638061
C       51.03362322      48.94490304      50.03132583
N       49.76579744      48.50716439      50.10139043
C       48.60770198      49.32855552      50.12617737
N       48.89309280      50.68041677      49.76451642
C       50.19751767      51.26959564      49.80980827
O       47.55932079      48.75524950      50.30675245
O       50.29065194      52.52796285      49.90701549
H       51.80542321      48.29351907      50.39460387
H       49.51963683      47.51284638      50.31799861
H       48.24219845      51.38095000      50.09374120
H       52.36968662      50.59610626      49.75485658
