12
Lattice="100.0 0.0 0.0 0.0 100.0 0.0 0.0 0.0 100.0" Properties=species:S:1:pos:R:3 Energy=-259827.34375 Energy_pyscf=-259822.02689314287 Energy_nn=-259823.546875 pbc="F F F"
C       51.35282334      50.24649385      49.92952831
C       51.10801952      48.92888346      50.00774727
N       49.82674198      48.46951856      50.12981933
C       48.66450786      49.20313162      50.20428440
N       48.98256420      50.62096498      50.20574973
C       50.22517594      51.21999526      49.88800591
O       47.50194056      48.77124332      50.06702197
O       50.32343530      52.43104006      49.79175409
H       51.84361753      48.15112230      50.13627541
H       49.73427636      47.42961057      50.05706031
H       48.13771191      51.20789758      50.14205370
H       52.35653050      50.61911860      50.10281486
