12
Lattice="100.0 0.0 0.0 0.0 100.0 0.0 0.0 0.0 100.0" Properties=species:S:1:pos:R:3 Energy=-259825.34375 Energy_pyscf=-259826.27754830412 Energy_nn=-259824.359375 pbc="F F F"
C       51.34655252      50.21721935      49.84835634
C       51.04747066      48.87298959      49.90393733
N       49.75645981      48.40165111      49.98370081
C       48.56913129      49.20336199      49.93854016
N       48.91154197      50.54189131      49.69794319
C       50.24462795      51.14902904      49.80002639
O       47.44940922      48.80568365      50.17673443
O       50.30472577      52.36132925      49.72383697
H       51.85796700      48.12245507      50.05335161
H       49.59913381      47.48287266      50.33154462
H       48.15250395      51.21997594      49.56799244
H       52.36910600      50.63243123      49.72912650
