12
Lattice="100.0 0.0 0.0 0.0 100.0 0.0 0.0 0.0 100.0" Properties=species:S:1:pos:R:3 Energy=-259821.234375 Energy_pyscf=-259820.8251191002 pbc="F F F"
C       51.29297924      50.31225154      49.83792844
C       51.01991027      49.01169907      50.10522414
N       49.72994723      48.46270926      50.26703346
C       48.63045939      49.26393116      50.11365066
N       48.90185491      50.63745156      49.93759395
C       50.22929087      51.28584389      49.90551228
O       47.44845724      48.91579866      50.16533812
O       50.40799100      52.49641971      49.77729129
H       51.83973702      48.35287175      50.33718607
H       49.52155682      47.45469929      50.20919100
H       48.14120131      51.24555388      50.07639013
H       52.35074848      50.68082059      49.68520860
