12
Lattice="100.0 0.0 0.0 0.0 100.0 0.0 0.0 0.0 100.0" Properties=species:S:1:pos:R:3 Energy=-259798.96875 Energy_pyscf=-259796.97431264946 Energy_nn=-259800.375 pbc="F F F"
C       51.37088114      50.09110869      49.78352476
C       51.14913832      48.75920479      49.92608422
N       49.91471491      48.36250541      50.20467022
C       48.80486935      49.18980720      50.03659047
N       48.99937036      50.52828162      49.59093645
C       50.34295456      51.11574275      49.72447491
O       47.61901339      48.75625487      50.05044287
O       50.43006940      52.27338306      49.93824900
H       52.11152790      48.07279852      49.92045015
H       49.83579445      47.59827743      50.91772870
H       48.36568853      51.23569412      49.74949867
H       52.25578258      50.54220232      49.37551896
