12
Lattice="100.0 0.0 0.0 0.0 100.0 0.0 0.0 0.0 100.0" Properties=species:S:1:pos:R:3 Energy=-259806.1875 Energy_pyscf=-259805.53743957117 Energy_nn=-259806.6875 pbc="F F F"
C       51.39696015      50.13809412      49.68477801
C       51.22177118      48.79331121      49.96286733
N       49.97936427      48.41119938      50.38306677
C       48.75717717      49.17875261      49.93717329
N       49.02268974      50.50779328      49.79013936
C       50.31637323      51.12073988      49.75634975
O       47.63677448      48.66173415      50.16277817
O       50.55043532      52.33229332      49.79155484
H       51.94118015      47.91008500      49.84386920
H       49.79279799      47.53741636      50.79828079
H       48.25266859      51.26768617      49.61324441
H       52.30609502      50.71414337      49.53206648
