12
Lattice="100.0 0.0 0.0 0.0 100.0 0.0 0.0 0.0 100.0" Properties=species:S:1:pos:R:3 Energy=-259792.65625 Energy_pyscf=-259792.6812627754 Energy_nn=-259795.578125 pbc="F F F"
C       51.43239095      50.40592871      49.97636977
C       51.17445375      49.07927059      50.02470372
N       49.92610096      48.50153652      49.75347200
C       48.87449935      49.38490014      49.87289167
N       49.04782467      50.76646132      49.77962893
C       50.29908087      51.39731454      49.82986147
O       47.81073425      48.86428178      50.47499323
O       50.26062039      52.60800017      49.75672794
H       51.83570723      48.22900937      50.20306210
H       49.76039467      47.54246224      50.06530851
H       48.43908479      51.50446403      49.87302470
H       52.33089430      50.84342485      50.13398207
