12
Lattice="100.0 0.0 0.0 0.0 100.0 0.0 0.0 0.0 100.0" Properties=species:S:1:pos:R:3 Energy=-259793.75 Energy_pyscf=-259800.94342816964 Energy_nn=-259795.6875 pbc="F F F"
C       51.39226652      50.27999455      50.12861480
C       51.07657637      48.97938317      49.86844627
N       49.82571095      48.36322891      49.94348649
C       48.66625590      49.22027358      50.11025436
N       48.92715738      50.59111318      49.83184624
C       50.22107905      51.19221147      49.96239962
O       47.55359003      48.97946770      50.39058136
O       50.38097754      52.40982587      49.86326358
H       51.87593512      48.33419624      49.54422466
H       49.84477974      47.54952982      50.47208434
H       47.97097593      51.08215170      50.00461045
H       52.36084166      50.67582600      50.31162420
