12
Lattice="100.0 0.0 0.0 0.0 100.0 0.0 0.0 0.0 100.0" Properties=species:S:1:pos:R:3 Energy=-259791.65625 Energy_pyscf=-259789.1687216411 Energy_nn=-259794.890625 pbc="F F F"
C       51.33411059      50.35461637      50.19343851
C       51.10175549      48.92799114      49.90324779
N       49.86818941      48.36916971      49.88410588
C       48.73536061      49.21183474      49.94724756
N       49.03729580      50.48333702      49.93837307
C       50.22842899      51.24822618      49.95478259
O       47.57694472      48.99095649      50.37784948
O       50.20030601      52.43164543      49.91950977
H       51.85065677      48.26772117      49.66457578
H       49.67005475      47.62611400      50.51142139
H       48.18617869      51.03254277      49.99912750
H       52.36919992      50.67256451      50.11847589
