12
Lattice="100.0 0.0 0.0 0.0 100.0 0.0 0.0 0.0 100.0" Properties=species:S:1:pos:R:3 Energy=-259807.328125 Energy_pyscf=-259801.10846210053 Energy_nn=-259807.09375 pbc="F F F"
C       51.31257942      50.22307434      49.87929424
C       51.02801320      48.89319918      50.05795056
N       49.76839154      48.29827218      49.70403672
C       48.72658290      49.21080415      49.96764147
N       48.97390061      50.43171332      49.58657953
C       50.18547256      51.17092176      49.80830401
O       47.67912353      48.77061598      50.51615158
O       50.29958087      52.36226880      49.59081496
H       51.73497807      48.10267275      50.30110155
H       49.46883088      47.54711576      50.22892667
H       48.20822570      51.11221368      49.69713921
H       52.31443826      50.57420722      50.02952686
