12
Lattice="100.0 0.0 0.0 0.0 100.0 0.0 0.0 0.0 100.0" Properties=species:S:1:pos:R:3 Energy=-259814.90625 Energy_pyscf=-259814.406800243 Energy_nn=-259814.640625 pbc="F F F"
C       51.30744208      50.26919057      50.07116498
C       51.06263474      48.94722442      49.96822427
N       49.86261444      48.39767806      50.30301892
C       48.67744971      49.22433119      50.22065808
N       48.97814733      50.59905439      50.27147612
C       50.25281542      51.20145109      49.93904162
O       47.53665309      48.78471152      50.14250573
O       50.30656711      52.34249847      49.64550708
H       51.78933385      48.14861666      49.63143565
H       49.66181332      47.54355106      49.74602181
H       48.21471678      51.19237067      50.06186641
H       52.35202756      50.59752442      49.75193342
