12
Lattice="100.0 0.0 0.0 0.0 100.0 0.0 0.0 0.0 100.0" Properties=species:S:1:pos:R:3 Energy=-259810.46875 Energy_pyscf=-259811.42387703012 pbc="F F F"
C       51.38147240      50.26560564      49.72710818
C       51.14625818      48.88839908      49.93865549
N       49.83368539      48.41282741      50.04736027
C       48.67212678      49.24075507      50.06653728
N       48.94455358      50.46793683      49.53707887
C       50.19835880      51.21269267      49.81253041
O       47.54472138      48.82592215      50.24210325
O       50.20981797      52.40837145      49.99542220
H       51.92214152      48.17931728      50.10969294
H       49.58340792      47.67605379      50.58301745
H       48.09743726      51.06205361      49.66054228
H       52.44313851      50.56072622      49.67519640
