12
Lattice="100.0 0.0 0.0 0.0 100.0 0.0 0.0 0.0 100.0" Properties=species:S:1:pos:R:3 Energy=-259814.953125 Energy_pyscf=-259811.7491653267 pbc="F F F"
C       51.26381225      50.26511989      49.85939320
C       51.09180613      48.94264037      50.06581501
N       49.80511633      48.37655984      50.18690362
C       48.70125250      49.24392937      50.14615870
N       48.98821302      50.69649132      50.22292373
C       50.28063749      51.28983016      49.79869093
O       47.53953134      48.76295455      50.03273020
O       50.46172806      52.54287573      49.76724804
H       51.91255914      48.27391023      50.13411111
H       49.58102743      47.38533658      49.89143038
H       48.14206328      51.25479788      50.14326376
H       52.27215552      50.66473885      49.92717141
