12
Lattice="100.0 0.0 0.0 0.0 100.0 0.0 0.0 0.0 100.0" Properties=species:S:1:pos:R:3 Energy=-259816.953125 Energy_pyscf=-259814.2191007354 pbc="F F F"
C       51.32327848      50.18764004      49.90781567
C       51.10695574      48.91062320      49.93704470
N       49.81198404      48.39202759      50.22224808
C       48.71448162      49.19260902      50.09583347
N       49.05001554      50.59331354      50.23395039
C       50.26011427      51.23934043      49.96486593
O       47.53853400      48.89177367      50.06502261
O       50.29243061      52.38111029      49.64894266
H       51.87385499      48.10587560      49.71244286
H       49.45091161      47.44502953      50.19824460
H       48.21620288      51.15987085      50.05525346
H       52.33890752      50.54744107      49.74551896
