12
Lattice="100.0 0.0 0.0 0.0 100.0 0.0 0.0 0.0 100.0" Properties=species:S:1:pos:R:3 Energy=-259788.265625 Energy_pyscf=-259793.71965705845 Energy_nn=-259792.609375 pbc="F F F"
C       51.37826739      50.31903847      49.77240895
C       51.08824178      48.94427056      50.00851571
N       49.83593307      48.51547127      50.24321134
C       48.61420594      49.36096233      50.17405645
N       48.93273512      50.62985559      49.72426492
C       50.21109149      51.24903140      49.82937114
O       47.53851463      48.82525689      50.40492660
O       50.03905740      52.34854880      50.27288872
H       51.75020928      48.15646751      50.38089007
H       49.42564393      47.48827758      50.31101282
H       48.28701738      51.50128626      49.71496532
H       52.45603638      50.74354063      49.60834232
