12
Lattice="100.0 0.0 0.0 0.0 100.0 0.0 0.0 0.0 100.0" Properties=species:S:1:pos:R:3 Energy=-259812.421875 Energy_pyscf=-259811.22307083078 Energy_nn=-259811.265625 pbc="F F F"
C       51.33141114      50.25378162      50.10203705
C       51.10977601      48.94699806      49.94627606
N       49.83986088      48.44524610      49.95247716
C       48.63104786      49.22952603      50.05330625
N       48.94059282      50.61896696      49.97991581
C       50.21493087      51.16725059      49.96754352
O       47.44678152      48.90163308      50.29951871
O       50.34377954      52.45241356      49.88247219
H       52.02300759      48.25597143      49.73281711
H       49.79778351      47.52041106      50.38574484
H       48.04769837      51.14838661      50.04247956
H       52.37466231      50.69489568      50.06258414
