12
Lattice="100.0 0.0 0.0 0.0 100.0 0.0 0.0 0.0 100.0" Properties=species:S:1:pos:R:3 Energy=-259802.5 Energy_pyscf=-259805.83152395827 Energy_nn=-259802.46875 pbc="F F F"
C       51.45964728      50.12634235      49.61188276
C       51.18407636      48.89465106      50.03389670
N       49.91556026      48.44781727      50.53298823
C       48.81057765      49.18830651      50.04346023
N       49.05094399      50.49872468      49.82891816
C       50.33545081      51.02874569      49.82356517
O       47.58984254      48.70395719      50.04561391
O       50.41552279      52.26332101      49.90161368
H       51.98396983      48.22547714      49.90114845
H       49.66389064      47.47328269      50.63652748
H       48.32840033      51.20020108      49.62810718
H       52.42022155      50.51489110      49.27217257
