12
Lattice="100.0 0.0 0.0 0.0 100.0 0.0 0.0 0.0 100.0" Properties=species:S:1:pos:R:3 Energy=-259798.421875 Energy_pyscf=-259796.9874270087 Energy_nn=-259800.46875 pbc="F F F"
C       51.39242140      50.30628034      49.55715953
C       51.26734640      49.02708757      49.84370532
N       50.04622688      48.37439644      50.11661299
C       48.81557794      49.25140104      49.92218455
N       49.05373538      50.59788407      49.73251135
C       50.28790307      51.19496155      49.78776965
O       47.71095321      48.78301980      49.94572522
O       50.55873945      52.46702521      49.69668977
H       52.24600583      48.43765811      50.16160475
H       49.93486706      47.63255376      50.84885385
H       48.35165101      51.25628537      49.86555498
H       52.42220210      50.69109499      49.35397769
