12
Lattice="100.0 0.0 0.0 0.0 100.0 0.0 0.0 0.0 100.0" Properties=species:S:1:pos:R:3 Energy=-259793.953125 Energy_pyscf=-259798.67063565817 Energy_nn=-259795.703125 pbc="F F F"
C       51.33517777      50.21524335      49.84511005
C       51.11384243      48.88848031      49.91804532
N       49.76292565      48.47836645      50.14647941
C       48.73496280      49.40496542      50.08162228
N       49.00573968      50.71640881      50.51381203
C       50.25328916      51.26841614      49.90780882
O       47.59578969      48.96767326      49.97201126
O       50.09950717      52.37935793      49.42772678
H       51.99697109      48.23172970      50.01118394
H       49.44165442      47.63585360      49.87065384
H       48.13131116      51.36315287      50.48481175
H       52.29289820      50.66856876      49.97599074
