12
Lattice="100.0 0.0 0.0 0.0 100.0 0.0 0.0 0.0 100.0" Properties=species:S:1:pos:R:3 Energy=-259795.21875 Energy_pyscf=-259799.392408488 Energy_nn=-259796.484375 pbc="F F F"
C       51.42437324      50.40290577      50.18538093
C       51.14704895      49.03417489      50.02871731
N       49.91215960      48.55066314      50.15208125
C       48.72743464      49.40401563      50.20098867
N       48.98948318      50.72573947      50.12574279
C       50.34818734      51.32359039      49.98444238
O       47.60101485      48.76566767      50.25356748
O       50.16953573      52.50298619      49.81773447
H       51.80242693      48.33920294      49.63270605
H       49.59250968      47.57764327      50.24415766
H       48.40405472      51.40655889      49.67269787
H       52.42874826      50.86525923      49.94106304
