12
Lattice="100.0 0.0 0.0 0.0 100.0 0.0 0.0 0.0 100.0" Properties=species:S:1:pos:R:3 Energy=-259813.640625 Energy_pyscf=-259808.4325169473 pbc="F F F"
C       51.42759194      50.39909514      49.95230350
C       51.29602811      49.06662912      50.18239866
N       50.03177297      48.57011272      50.04515669
C       48.82868904      49.26463904      50.06831391
N       49.10718846      50.66547616      50.24376763
C       50.30789180      51.28022731      49.92546126
O       47.62989580      48.90497464      50.04566452
O       50.31732910      52.47734126      49.60793319
H       52.04622086      48.31208687      50.31962704
H       49.92330757      47.61588167      50.23995981
H       48.42582462      51.28922791      50.02317096
H       52.35483574      50.79653740      49.63221139
