12
Lattice="100.0 0.0 0.0 0.0 100.0 0.0 0.0 0.0 100.0" Properties=species:S:1:pos:R:3 Energy=-259811.046875 Energy_pyscf=-259810.48289682984 pbc="F F F"
C       51.29675568      50.29296361      49.83993410
C       51.03516592      48.98152906      50.08032353
N       49.73153387      48.41037102      50.15194463
C       48.72072227      49.30875855      50.02836107
N       49.01546148      50.62702777      50.13551114
C       50.19885214      51.18953206      49.79464132
O       47.55331136      48.86451203      50.03469044
O       50.20524726      52.43438655      49.75412733
H       51.77977277      48.27159500      50.13030379
H       49.57753924      47.39303930      49.99164690
H       48.14193604      51.17786654      49.96379783
H       52.35068795      50.55884729      49.84162894
