12
Lattice="100.0 0.0 0.0 0.0 100.0 0.0 0.0 0.0 100.0" Properties=species:S:1:pos:R:3 Energy=-259805.921875 Energy_pyscf=-259807.28796457584 Energy_nn=-259805.390625 pbc="F F F"
C       51.41354724      50.48758281      50.08524709
C       51.26848342      49.09443652      49.90844133
N       49.97213195      48.58684743      50.00357638
C       48.77016350      49.40596836      50.17974159
N       48.99943238      50.73778023      50.22253788
C       50.27911395      51.31456862      49.93231350
O       47.62790396      48.92333410      50.08026409
O       50.47543190      52.47811139      49.60857827
H       52.11267609      48.40652633      49.94371195
H       50.00255221      47.52081186      50.22239007
H       48.31854597      51.41770793      50.14271354
H       52.45174403      50.86127588      50.03826442
