12
Lattice="100.0 0.0 0.0 0.0 100.0 0.0 0.0 0.0 100.0" Properties=species:S:1:pos:R:3 Energy=-259809.671875 Energy_pyscf=-259809.87839569358 pbc="F F F"
C       51.43345823      50.31064154      49.93453399
C       51.23699006      48.99614256      49.91824620
N       49.95064859      48.47040862      50.11409109
C       48.69324487      49.28098469      50.11319133
N       48.99083912      50.65142103      50.01492926
C       50.35079178      51.29990276      49.99720208
O       47.62008932      48.71343085      50.30355305
O       50.46767573      52.47321012      49.88561560
H       52.08564942      48.27057398      49.73859817
H       49.89377655      47.48068289      50.30733726
H       48.06717105      51.12802070      49.61826730
H       52.40488144      50.66379590      50.07961034
