12
Lattice="100.0 0.0 0.0 0.0 100.0 0.0 0.0 0.0 100.0" Properties=species:S:1:pos:R:3 Energy=-259807.3125 Energy_pyscf=-259808.3869436517 pbc="F F F"
C       51.37556413      50.25995780      50.12347956
C       51.08109111      48.94682538      50.18542804
N       49.79428589      48.46945145      49.78963915
C       48.65108327      49.21713797      50.07065266
N       48.90652239      50.60000800      50.19149224
C       50.17385765      51.26041110      49.86627952
O       47.54382678      48.74734070      50.29779406
O       50.35707650      52.39573249      49.46405945
H       51.79327333      48.04578395      50.14842279
H       49.56315463      47.59874128      50.24443563
H       48.13957693      51.24759983      50.07403498
H       52.35584417      50.63126468      50.16888090
