12
Lattice="100.0 0.0 0.0 0.0 100.0 0.0 0.0 0.0 100.0" Properties=species:S:1:pos:R:3 Energy=-259818.28125 Energy_pyscf=-259815.02842859042 pbc="F F F"
C       51.38728342      50.38323924      49.91488711
C       51.10798420      48.96227385      50.01850044
N       49.89405802      48.44990918      49.94334077
C       48.73914466      49.21278725      50.04385273
N       49.02564255      50.59293571      49.77696583
C       50.29947901      51.21574640      49.79294666
O       47.56011651      48.86364061      50.16701808
O       50.32809777      52.45549759      49.75605374
H       51.92846967      48.20172989      50.08548041
H       49.69095668      47.42728708      49.99156322
H       48.15515938      51.12221743      49.70333201
H       52.35147746      50.77917149      50.19872449
