12
Lattice="100.0 0.0 0.0 0.0 100.0 0.0 0.0 0.0 100.0" Properties=species:S:1:pos:R:3 Energy=-259816.109375 Energy_pyscf=-259812.73240370335 Energy_nn=-259815.65625 pbc="F F F"
C       51.32940110      50.30366937      50.04773855
C       51.11960460      48.96372639      50.06378934
N       49.85633368      48.43853458      50.06544514
C       48.63573047      49.19349992      50.02773829
N       48.97078331      50.59438818      49.99493022
C       50.20254684      51.26585429      49.89193698
O       47.47676860      48.92900693      50.32461527
O       50.25620634      52.50018843      49.78271538
H       51.91227411      48.32564149      49.82176776
H       49.76790030      47.43414729      50.15188130
H       48.14045791      51.07686715      50.11587223
H       52.41746077      50.60588443      50.10396329
