12
Lattice="100.0 0.0 0.0 0.0 100.0 0.0 0.0 0.0 100.0" Properties=species:S:1:pos:R:3 Energy=-259821.015625 Energy_pyscf=-259822.75114199956 pbc="F F F"
C       51.46847289      50.43329729      49.96963046
C       51.21556016      49.10677743      50.14177762
N       49.93137428      48.58103523      49.96045049
C       48.75790547      49.39116920      49.97931223
N       49.04555024      50.73295400      49.99088915
C       50.31163623      51.34455581      49.84434357
O       47.66493263      48.84710235      50.04729742
O       50.33083992      52.57123612      49.66661731
H       51.91878706      48.26875583      50.19244917
H       49.67611182      47.53732074      50.05654517
H       48.36321514      51.43934586      50.00476137
H       52.45039866      50.88347483      49.89313315
