12
Lattice="100.0 0.0 0.0 0.0 100.0 0.0 0.0 0.0 100.0" Properties=species:S:1:pos:R:3 Energy=-259816.734375 Energy_pyscf=-259810.00751113534 pbc="F F F"
C       51.26940396      50.26108168      49.89699837
C       51.05530691      48.95789850      50.20205442
N       49.73220491      48.46196609      50.12152025
C       48.60819725      49.32826777      50.18981767
N       48.87354803      50.75476563      49.83582018
C       50.17011093      51.25081282      49.81992218
O       47.51318247      48.76414901      50.27996792
O       50.37232920      52.49597774      49.67687884
H       52.00721841      48.38788768      50.35926124
H       49.47926327      47.44999538      50.10021054
H       48.15504664      51.45061433      50.16958830
H       52.27853656      50.57633212      49.79239156
