12
Lattice="100.0 0.0 0.0 0.0 100.0 0.0 0.0 0.0 100.0" Properties=species:S:1:pos:R:3 Energy=-259808.1875 Energy_pyscf=-259805.69546580725 Energy_nn=-259808.34375 pbc="F F F"
C       51.45021484      50.28740506      49.94380496
C       51.10045856      48.91218271      50.04366542
N       49.76849637      48.45467305      50.02997738
C       48.64862457      49.16730488      50.18847312
N       48.93763099      50.65519822      50.21966864
C       50.18865455      51.17919003      49.85518283
O       47.53079951      48.70778158      50.25752190
O       50.38325271      52.39926698      49.75473517
H       51.88367925      48.18679260      50.11238259
H       49.61987998      47.48125771      49.97163066
H       48.15752088      51.17331071      50.09107205
H       52.40584758      50.69027827      50.19054642
