12
Lattice="100.0 0.0 0.0 0.0 100.0 0.0 0.0 0.0 100.0" Properties=species:S:1:pos:R:3 Energy=-259817.953125 Energy_pyscf=-259819.84190052818 pbc="F F F"
C       51.38456525      50.20044949      49.81837403
C       51.04839039      48.87918330      49.97402500
N       49.78875899      48.47416602      49.91679776
C       48.63068633      49.23993950      49.93684780
N       48.94486194      50.54112983      49.52654700
C       50.23118420      51.12482081      49.73244629
O       47.55638738      48.79940533      50.29896789
O       50.22524518      52.36699421      49.80824779
H       51.72061756      48.02830891      50.03134060
H       49.57588701      47.58834388      50.32363807
H       48.13819804      51.14548669      49.59279732
H       52.36111277      50.67265679      49.77976521
