12
Lattice="100.0 0.0 0.0 0.0 100.0 0.0 0.0 0.0 100.0" Properties=species:S:1:pos:R:3 Energy=-259797.359375 Energy_pyscf=-259794.73053361708 Energy_nn=-259797.59375 pbc="F F F"
C       51.38057382      50.29509043      49.88320211
C       51.09724854      48.96556871      49.92995200
N       49.79882199      48.48735528      50.30939058
C       48.76322017      49.32499338      50.06018297
N       48.91724207      50.75730827      50.00323655
C       50.23145566      51.26823212      50.05063968
O       47.60565852      49.04203662      50.15808575
O       50.29661392      52.52154740      49.97417209
H       51.83274926      48.13998481      49.90320964
H       49.57437148      47.49177205      50.15371609
H       48.07149530      51.06451875      50.29157800
H       52.45564958      50.49165250      49.78243315
