12
Lattice="100.0 0.0 0.0 0.0 100.0 0.0 0.0 0.0 100.0" Properties=species:S:1:pos:R:3 Energy=-259805.015625 Energy_pyscf=-259803.98039021267 pbc="F F F"
C       51.33684534      50.22003211      49.86416816
C       51.12858990      48.88755783      50.03626096
N       49.77572459      48.44346881      50.41594623
C       48.64472924      49.28421296      50.18484498
N       48.92079226      50.63062818      49.72890963
C       50.22102488      51.20123140      49.91921777
O       47.51137325      48.71395589      50.14909285
O       50.21845504      52.35967262      50.26221714
H       51.87406862      48.14572201      49.81386628
H       49.35628302      47.53396991      50.11927592
H       48.14238634      51.22517252      49.58799131
H       52.39632056      50.49963772      49.67934050
