12
Lattice="100.0 0.0 0.0 0.0 100.0 0.0 0.0 0.0 100.0" Properties=species:S:1:pos:R:3 Energy=-259815.234375 Energy_pyscf=-259812.14055215885 pbc="F F F"
C       51.35305341      50.24998127      49.81119028
C       51.00349728      48.94589799      50.07627548
N       49.74167706      48.48873656      50.22876308
C       48.56851101      49.22835369      50.19201739
N       48.88767086      50.56876289      49.77582385
C       50.21159834      51.19227691      49.83500723
O       47.41898365      48.76024592      50.19886191
O       50.25251409      52.35639221      50.05629594
H       51.79104790      48.15620797      49.92770850
H       49.60967787      47.50921630      50.02791629
H       48.22127929      51.26581730      49.82646524
H       52.42903851      50.44776336      49.81122767
