12
Lattice="100.0 0.0 0.0 0.0 100.0 0.0 0.0 0.0 100.0" Properties=species:S:1:pos:R:3 Energy=-259818.921875 Energy_pyscf=-259817.02425156155 Energy_nn=-259817.21875 pbc="F F F"
C       51.45974361      50.44760806      50.02872328
C       51.18504813      49.10067970      49.99548199
N       49.93697697      48.55972698      50.20063750
C       48.74967430      49.34694554      50.21264234
N       49.06715555      50.69546933      50.20822368
C       50.36850054      51.40715054      49.89725105
O       47.61223989      48.89583862      50.08035873
O       50.41732239      52.63729035      49.72423593
H       52.11137058      48.49979084      50.11096346
H       49.92953828      47.55535951      49.96845977
H       48.26224586      51.29278708      50.15669770
H       52.52755158      50.65886663      50.12085812
