12
Lattice="100.0 0.0 0.0 0.0 100.0 0.0 0.0 0.0 100.0" Properties=species:S:1:pos:R:3 Energy=-259812.734375 Energy_pyscf=-259814.46135434016 pbc="F F F"
C       51.28002426      50.25968706      49.79064008
C       51.08139726      48.96370663      49.96328196
N       49.80076328      48.47682372      50.10508904
C       48.70914058      49.24852536      50.07610754
N       48.99697342      50.62203714      50.23257844
C       50.26088127      51.24890983      49.99123490
O       47.58582737      48.72756159      50.03419462
O       50.33123495      52.42445406      49.75229377
H       51.89260675      48.23695281      50.00754288
H       49.63603137      47.49416747      49.84625316
H       48.07788060      51.15829409      50.38026516
H       52.33880475      50.38633783      49.57175298
