16
Lattice="100.0 0.0 0.0 0.0 100.0 0.0 0.0 0.0 100.0" Properties=species:S:1:pos:R:3 Energy=-310681.9375 Energy_pyscf=-310677.23314429674 pbc="F F F"
C       51.88890527      49.95780978      50.07667146
C       50.38181578      49.83775324      50.23555856
C       49.56734128      51.01461066      50.02602402
O       50.03896307      52.24104072      49.91193888
C       48.22818381      50.90003168      49.90316171
C       47.59507648      49.64584779      49.79209192
C       48.42545459      48.49293025      49.92191298
C       49.77846004      48.57899609      50.33059801
O       52.54225789      51.03715669      50.12754891
O       52.46259488      48.70476515      50.17763157
H       50.99103652      52.29450619      50.26395790
H       47.59987707      51.76925146      49.85480869
H       46.59574382      49.38043337      49.64309885
H       47.97925953      47.51794978      49.85574689
H       50.39552554      47.71446875      50.35088102
H       53.32048461      48.73611012      50.50106822
