16
Lattice="100.0 0.0 0.0 0.0 100.0 0.0 0.0 0.0 100.0" Properties=species:S:1:pos:R:3 Energy=-310678.40625 Energy_pyscf=-310677.991547728 pbc="F F F"
C       51.96073486      50.06396672      50.01992930
C       50.49830208      49.94926338      49.84260467
C       49.74384967      51.13770990      49.84877667
O       50.24941098      52.29472523      49.74656778
C       48.38175974      51.01531932      49.99109893
C       47.68954484      49.74543370      50.01691133
C       48.45681056      48.55917808      49.89084514
C       49.81340621      48.70466578      49.88447418
O       52.45610395      51.15885748      49.92838609
O       52.67382387      49.01941717      50.46692154
H       51.25518773      52.15801717      49.78928538
H       47.69218246      51.91135644      49.73570419
H       46.59653486      49.67583491      49.97913214
H       48.17172356      47.62692150      49.44481578
H       50.36188679      47.79356319      49.75231641
H       53.66570848      49.28791563      50.63160144
