16
Lattice="100.0 0.0 0.0 0.0 100.0 0.0 0.0 0.0 100.0" Properties=species:S:1:pos:R:3 Energy=-310679.625 Energy_pyscf=-310675.9858455103 pbc="F F F"
C       51.92887117      50.11642702      50.11731604
C       50.41233868      49.97175241      49.93577327
C       49.66508656      51.17106670      49.74645173
O       50.22863974      52.38322976      49.83585895
C       48.25914046      51.12923188      49.81369473
C       47.64925225      49.87980989      49.97866107
C       48.38366983      48.67004246      49.93321558
C       49.70312585      48.78434989      49.86040796
O       52.45995076      51.20050358      49.93995231
O       52.74810628      48.97008385      50.23139802
H       51.25748229      52.21067640      50.06177909
H       47.56189466      51.86894137      50.19435374
H       46.52229592      49.87851485      50.08626874
H       47.88402877      47.72382160      49.97150821
H       50.34594951      47.80760135      49.76501941
H       53.68161587      49.36156872      50.35015116
