16
Lattice="100.0 0.0 0.0 0.0 100.0 0.0 0.0 0.0 100.0" Properties=species:S:1:pos:R:3 Energy=-310679.53125 Energy_pyscf=-310669.08985019044 pbc="F F F"
C       51.89484785      50.08667054      50.18852608
C       50.43324574      50.05558015      49.99285874
C       49.67800345      51.20384623      49.75283543
O       50.12549817      52.40138288      49.80819184
C       48.27727215      51.06051871      50.02167502
C       47.69731386      49.78733764      49.90546547
C       48.46745946      48.61596396      49.78571396
C       49.83211535      48.79471447      49.78028953
O       52.60057390      51.15987911      50.08443788
O       52.45882716      48.93053514      50.31325972
H       51.15785005      52.24435316      49.80499631
H       47.75862963      51.99895002      50.21319577
H       46.58676045      49.90961078      50.08768211
H       47.93876909      47.61848360      50.12378081
H       50.43436050      47.93012415      49.61712462
H       53.38545200      49.29797144      50.32154550
