16
Lattice="100.0 0.0 0.0 0.0 100.0 0.0 0.0 0.0 100.0" Properties=species:S:1:pos:R:3 Energy=-310680.9375 Energy_pyscf=-310676.16584735643 pbc="F F F"
C       51.88478635      50.16474120      50.14914408
C       50.47957435      50.02823273      49.88693974
C       49.65803156      51.17821797      49.77236803
O       50.22399154      52.46824079      49.79053414
C       48.27261160      51.04227426      49.92701455
C       47.66117823      49.82048261      49.88523462
C       48.37620194      48.61978876      49.91934600
C       49.85339593      48.75808971      49.88908614
O       52.42935083      51.21803997      50.09102106
O       52.63447396      48.87049515      50.16109822
H       51.18172698      52.44206907      50.01197230
H       47.66306379      51.91346610      50.19038379
H       46.55872649      49.93248235      50.03269966
H       47.90075742      47.65934564      50.07761957
H       50.36626426      47.80532017      49.76451949
H       53.56413062      49.17415341      50.30613904
