16
Lattice="100.0 0.0 0.0 0.0 100.0 0.0 0.0 0.0 100.0" Properties=species:S:1:pos:R:3 Energy=-310687.71875 Energy_pyscf=-310683.1561005027 pbc="F F F"
C       51.78412536      50.12342697      49.97442717
C       50.38238466      49.98350609      49.80817748
C       49.53678386      51.18322976      49.74811048
O       50.08979153      52.34521256      49.85210000
C       48.12763125      51.07584345      49.71592669
C       47.61908977      49.72455098      49.74790756
C       48.31521773      48.63336836      49.95316811
C       49.74558264      48.75117930      49.83610579
O       52.38953290      51.17527859      50.15108653
O       52.43528515      48.99796275      50.08768510
H       51.06938896      52.21622315      49.98222964
H       47.48003172      51.95618833      49.80214161
H       46.52932255      49.76300137      49.63324383
H       47.73859045      47.72071755      50.09949322
H       50.36240591      47.84262033      49.71780864
H       53.42348452      49.14423793      50.29554086
