24
Lattice="100.0 0.0 0.0 0.0 100.0 0.0 0.0 0.0 100.0" Properties=species:S:1:pos:R:3 Energy=-358667.36789353495 pbc="F F F"
N       50.46088108      50.59265215      50.48732868
N       49.71289285      50.04599410      49.63441905
C       48.31800740      50.18846122      49.85371355
C       47.77717762      50.89822514      50.98909050
C       46.40537076      50.72050564      51.22556352
C       45.62461704      50.01215311      50.31613649
C       46.02737400      49.43754720      49.17061414
C       47.47558924      49.55701479      48.88536253
C       51.83916961      50.23767911      50.28629171
C       52.16686289      49.24391469      49.42128798
C       53.38640543      48.85177180      49.12349155
C       54.40854094      49.42226501      49.89737063
C       54.18041583      50.40212176      50.82079783
C       52.84979667      50.91452091      51.03212048
H       48.52541035      51.65365858      51.63038329
H       45.92978959      51.18025288      52.04013601
H       44.56618363      49.95779498      50.59220578
H       45.18294564      48.92088799      48.62043841
H       47.88268418      49.20473961      47.95986399
H       51.26822248      48.68364764      48.88246285
H       53.59736989      48.16922910      48.29901545
H       55.43381637      49.01941595      49.73091095
H       55.04914114      50.86477347      51.37870681
H       52.40121265      51.83077090      51.58321026
