24
Lattice="100.0 0.0 0.0 0.0 100.0 0.0 0.0 0.0 100.0" Properties=species:S:1:pos:R:3 Energy=-358666.9109822874 pbc="F F F"
N       50.42480751      49.45972206      49.92224442
N       49.73913341      50.18585997      50.66031636
C       48.36457472      50.12695498      50.38645236
C       47.56498761      51.17929431      50.71351328
C       46.18663592      51.14387131      50.59957751
C       45.51122566      50.02745612      50.04413429
C       46.38746949      48.94475688      49.90824042
C       47.73581934      48.98198077      50.03522603
C       51.83750764      49.47207212      50.10261671
C       52.56596337      49.09528850      48.88613249
C       53.98048850      49.25074623      48.84748156
C       54.64509987      49.73882907      50.06127992
C       53.90010060      50.05350384      51.18894926
C       52.47240910      49.91411307      51.25526570
H       48.25366182      52.01089225      50.92668987
H       45.50457593      51.89109635      50.91546980
H       44.33378009      49.87189203      50.17759394
H       46.01242544      48.01440164      49.52362096
H       48.33946314      47.98910775      50.04341762
H       51.98673575      48.89176295      47.91832065
H       54.50756210      49.01121309      47.87156922
H       55.66621991      49.76295928      50.23410289
H       54.43686578      50.40822029      52.12843078
H       51.84502158      50.33641786      52.02291176
