24
Lattice="100.0 0.0 0.0 0.0 100.0 0.0 0.0 0.0 100.0" Properties=species:S:1:pos:R:3 Energy=-358661.1385892036 pbc="F F F"
N       50.57599385      50.25754232      50.34704498
N       49.76348852      49.27800136      50.19880037
C       48.34723404      49.63698610      50.23098236
C       47.83861529      50.61510438      51.15709864
C       46.39547933      50.79210175      50.99825451
C       45.53297666      50.12864519      50.03302678
C       46.11865482      49.16989372      49.14108634
C       47.50745409      48.94217648      49.18573723
C       51.91471209      49.80311072      50.22367978
C       52.28700172      49.08735553      49.13236970
C       53.67909931      48.83971083      48.96784577
C       54.63795661      49.29477596      49.87884962
C       54.22583555      50.16134226      51.01505543
C       52.92867215      50.46166439      51.00177623
H       48.52342203      50.94918415      51.96532553
H       45.90697524      51.61610310      51.60438238
H       44.42050774      50.26400787      49.96431172
H       45.52354738      48.65982153      48.40497432
H       47.93507455      48.42954642      48.33775090
H       51.54559211      48.74670611      48.47285255
H       54.02428172      48.38389690      48.03467447
H       55.57949226      49.10206128      49.67313863
H       54.86235746      50.69395561      51.67964726
H       52.49557072      50.96398022      51.85915351
