24
Lattice="100.0 0.0 0.0 0.0 100.0 0.0 0.0 0.0 100.0" Properties=species:S:1:pos:R:3 Energy=-358667.8808905941 pbc="F F F"
N       50.54185821      50.33675678      50.63603021
N       49.70163442      49.69322630      49.91965073
C       48.28793202      49.90086258      50.22711339
C       47.54038449      51.11113011      50.49581153
C       46.08270290      51.14562663      50.33878667
C       45.46369299      50.00402553      49.93919783
C       46.18363886      48.76977603      49.83111574
C       47.59546865      48.71236755      49.82475725
C       51.87363088      49.97850030      50.30312587
C       52.25773357      49.82214818      48.99010262
C       53.55544379      49.43842642      48.65330257
C       54.51459097      49.29152890      49.67049035
C       54.05432611      49.49052545      51.03602277
C       52.80011743      49.90273680      51.37094904
H       47.99835790      52.12001132      50.76089225
H       45.50902137      52.16917195      50.18762032
H       44.45587663      50.17355247      49.49763627
H       45.67877500      47.83082805      49.42462146
H       48.25029477      47.92319908      49.33147021
H       51.44345478      49.94774771      48.25029677
H       53.95541350      49.38790969      47.58750177
H       55.54412337      49.07502389      49.51996174
H       54.67682511      49.41929991      51.84974474
H       52.63898139      50.02927308      52.41249823
