24
Lattice="100.0 0.0 0.0 0.0 100.0 0.0 0.0 0.0 100.0" Properties=species:S:1:pos:R:3 Energy=-358669.07800046675 pbc="F F F"
N       50.41115577      49.55309061      49.79067698
N       49.78554423      50.49943642      50.35733186
C       48.26412423      50.19192358      50.25614859
C       47.37309607      51.28878128      50.57655808
C       45.98980956      51.14302194      50.40652294
C       45.47957674      49.92781016      49.97753309
C       46.19624126      48.78950547      49.78283498
C       47.66993776      48.94558031      49.85315385
C       51.79839273      49.53605997      49.99704172
C       52.47118101      49.25039985      48.83769193
C       53.82752403      49.28188467      48.68924182
C       54.50521394      49.59049675      49.87024599
C       53.92365015      49.93430508      51.08822536
C       52.56032834      49.94074469      51.16993927
H       47.94632932      52.16257086      50.96803257
H       45.32961396      52.06965600      50.64188596
H       44.44733364      49.79078586      49.95327837
H       45.84650861      47.83742914      49.55950035
H       48.21845113      48.04531415      49.62108712
H       51.95352188      49.00373150      47.92842030
H       54.47517253      49.00911101      47.85294196
H       55.55266636      49.62081393      49.80166820
H       54.47485400      50.05161120      51.99815759
H       52.03892434      50.10225206      52.14705804
