24
Lattice="100.0 0.0 0.0 0.0 100.0 0.0 0.0 0.0 100.0" Properties=species:S:1:pos:R:3 Energy=-358667.9907809776 pbc="F F F"
N       50.29951153      50.74414404      49.96847374
N       49.50141865      49.98758056      49.36739397
C       48.13482093      50.28829953      49.61843978
C       47.83642995      50.64569480      50.91985338
C       46.47872939      50.94336777      51.20307084
C       45.51280998      50.51114491      50.34016951
C       45.73242447      50.04155714      48.98106101
C       47.08209197      49.93705795      48.71432622
C       51.63900269      50.41706892      49.88353631
C       52.09855356      49.29177482      49.11373147
C       53.47739873      48.98819989      49.19088295
C       54.33764431      49.90815783      49.98693074
C       53.71768587      50.91403431      50.80076820
C       52.38491101      51.14358967      50.74485936
H       48.70073706      50.99349378      51.59439820
H       46.23491447      51.32242823      52.18273119
H       44.45002203      50.64293713      50.66397404
H       44.91126873      49.55462378      48.42940972
H       47.54248847      49.62482515      47.81726881
H       51.32444035      48.63145001      48.61191831
H       53.85623547      48.11418793      48.70274748
H       55.54997797      49.88426259      49.97678900
H       54.21895428      51.57129135      51.47302927
H       51.75624460      51.88581207      51.25306581
