24
Lattice="100.0 0.0 0.0 0.0 100.0 0.0 0.0 0.0 100.0" Properties=species:S:1:pos:R:3 Energy=-358666.9990316852 pbc="F F F"
N       50.26809809      49.45297542      49.66028312
N       49.65903195      50.34068398      50.38088251
C       48.22143964      50.15548633      50.34984510
C       47.37341877      51.25616118      50.60694354
C       45.98193143      50.99511055      50.47201964
C       45.45516055      49.76973494      50.15118792
C       46.29614372      48.69823776      49.87808656
C       47.66269335      48.84216250      49.99969085
C       51.75559481      49.49209793      49.80952337
C       52.60448440      49.24031614      48.71763884
C       53.99210803      49.18069372      48.84789246
C       54.55263650      49.42272989      50.04021388
C       53.79380228      49.69449445      51.27506538
C       52.37396298      49.73518611      51.14005884
H       47.66662219      52.19609590      50.95523588
H       45.12833498      51.69277701      50.66948057
H       44.37916964      49.78275811      50.09647725
H       45.97024387      47.80390410      49.48213858
H       48.32472165      48.04651457      50.04004277
H       52.24603638      49.28182931      47.68770115
H       54.70760293      49.22049942      48.04743896
H       55.62083036      49.42236858      50.01225745
H       54.23023632      49.66104588      52.31229885
H       51.64797138      49.61178127      52.00125362
