24
Lattice="100.0 0.0 0.0 0.0 100.0 0.0 0.0 0.0 100.0" Properties=species:S:1:pos:R:3 Energy=-358662.981388985 pbc="F F F"
N       50.30722802      49.76750300      50.48219276
N       49.44130914      49.44864892      49.66251080
C       48.06963518      49.76306519      50.05142882
C       47.47539474      51.04736952      50.29147419
C       46.12502355      51.22336657      50.31927225
C       45.30930757      50.08705192      50.12566293
C       45.89155468      48.85478070      49.91714987
C       47.25713964      48.72142217      49.74308923
C       51.74978365      49.58697845      50.11566620
C       52.34725745      49.44861304      48.84543351
C       53.81513984      49.63864773      48.72047015
C       54.62624815      49.64966225      49.81400586
C       54.06428082      49.64263163      51.11521806
C       52.65102305      49.53030376      51.25024942
H       47.95752309      51.94198402      50.35627661
H       45.87981955      52.31365496      50.44216029
H       44.24923846      50.00775438      50.39630928
H       45.39176319      47.88649132      49.92270537
H       47.66179779      47.68634504      49.54857302
H       51.71656708      49.20290623      47.94911842
H       54.29185137      49.45017567      47.79038222
H       55.75076154      49.60483705      49.68554912
H       54.66988292      49.83128121      52.04540376
H       52.21497553      49.66976002      52.20961778
