24
Lattice="100.0 0.0 0.0 0.0 100.0 0.0 0.0 0.0 100.0" Properties=species:S:1:pos:R:3 Energy=-358660.9149344744 pbc="F F F"
N       50.27848276      49.62984739      49.56593650
N       49.68490926      50.41417523      50.35250466
C       48.34409406      50.29454874      50.23731428
C       47.41299288      51.02860334      51.12653520
C       46.05123401      50.93732354      50.78530439
C       45.57675633      50.04585920      49.81206838
C       46.47712187      49.14536113      49.18303186
C       47.78821570      49.33033183      49.44363513
C       51.65884028      49.67951495      49.81117019
C       52.41165065      48.78374520      49.00715935
C       53.76462136      48.81341854      48.97017216
C       54.47661611      49.67922408      49.72031026
C       53.71404218      50.40691538      50.73481185
C       52.29187358      50.41520230      50.82924312
H       47.78351942      51.77523805      51.90542991
H       45.45997495      51.59293694      51.43867760
H       44.46024580      50.07275222      49.66265700
H       46.29989944      48.22476195      48.44806965
H       48.49913181      48.69771220      48.93851190
H       51.94592794      48.43467363      48.09457009
H       54.46708932      48.28756566      48.28621594
H       55.53975420      49.83324191      49.66388527
H       54.16933075      50.95985034      51.49110470
H       51.80552808      50.93845801      51.56046611
