24
Lattice="100.0 0.0 0.0 0.0 100.0 0.0 0.0 0.0 100.0" Properties=species:S:1:pos:R:3 Energy=-358667.39139056194 pbc="F F F"
N       50.46384002      50.12712848      50.41424120
N       49.69892555      49.87335010      49.50733209
C       48.17889654      50.11012143      49.78581629
C       47.61573303      50.34300008      51.07536758
C       46.26985199      50.48742748      51.28689958
C       45.38231769      50.60963417      50.25709548
C       45.93236061      50.49275922      48.92015210
C       47.35034676      50.20318095      48.67415305
C       51.90905237      49.95181719      50.18320199
C       52.58718554      48.77252095      49.95043002
C       53.87839442      48.85106772      49.58693465
C       54.66924090      50.00590709      49.70978475
C       54.03862156      51.19607787      50.18574803
C       52.61971364      51.13962045      50.34445977
H       48.28631803      50.38630943      51.92005360
H       45.93739356      50.64461206      52.34517117
H       44.27453433      50.54156327      50.38106135
H       45.23097438      50.51959673      48.08411725
H       47.63110891      50.11616306      47.65482883
H       52.02732346      47.84451271      49.94832204
H       54.34769406      47.85680295      49.58640823
H       55.72546567      50.10554936      49.39898630
H       54.76854352      52.09864927      50.19059724
H       52.14330127      52.15548729      50.59522709
