24
Lattice="100.0 0.0 0.0 0.0 100.0 0.0 0.0 0.0 100.0" Properties=species:S:1:pos:R:3 Energy=-358660.92985101714 pbc="F F F"
N       50.53503198      50.38662753      50.51948639
N       49.71496878      49.84194740      49.75017048
C       48.22401584      49.97037377      49.99703390
C       47.56634247      50.22094343      51.20096487
C       46.16012135      50.31994789      51.23435704
C       45.42964137      50.39100202      50.03593101
C       46.13663423      50.18384637      48.87802133
C       47.41804589      49.85675283      48.74976974
C       51.97583356      50.15168352      50.24878816
C       52.35699469      48.80696451      49.81602150
C       53.69085624      48.63767936      49.46465330
C       54.64746563      49.52489897      49.75226309
C       54.32649011      50.85150220      50.21440105
C       52.94966989      51.14673565      50.46384053
H       48.18472160      50.31246187      52.05059486
H       45.78785100      50.49062349      52.20388505
H       44.31097640      50.44059017      49.95934828
H       45.62664693      50.26550103      47.85399861
H       47.97038569      49.71963815      47.79611495
H       51.41669583      48.31036453      49.61773648
H       53.85842539      47.75939375      48.83704116
H       55.68902360      49.30793664      49.52816978
H       55.11680666      51.56162927      50.51152612
H       52.96712327      52.24060625      50.84958066
