24
Lattice="100.0 0.0 0.0 0.0 100.0 0.0 0.0 0.0 100.0" Properties=species:S:1:pos:R:3 Energy=-358665.6585836638 pbc="F F F"
N       50.31399796      50.09827459      50.34372810
N       49.45606255      49.59295862      49.52776225
C       48.16209906      49.78422548      49.75684218
C       47.80111632      50.53692955      50.96097661
C       46.50167689      51.07225931      51.07755156
C       45.49116763      50.55729155      50.19561079
C       45.87662542      49.51558114      49.24389332
C       47.21037518      49.18164762      48.94465889
C       51.65361934      49.92479724      50.08629946
C       52.19036394      49.27620910      49.03245107
C       53.64616155      49.08662608      49.04833665
C       54.44451609      49.70004116      49.94832904
C       53.92179550      50.51905222      50.90379024
C       52.59897788      50.62963857      50.96807892
H       48.76894096      50.93455876      51.43541870
H       46.10074735      51.72946444      51.87506569
H       44.41762920      50.91293409      50.07217373
H       45.04332289      49.07788257      48.60092872
H       47.46292372      48.43837899      48.12493431
H       51.60568288      48.90414644      48.19342707
H       54.08658453      48.27053556      48.44253325
H       55.58237080      49.47788562      49.94848872
H       54.60899381      50.89701416      51.67406654
H       52.28610558      51.23188920      51.77928221
