24
Lattice="100.0 0.0 0.0 0.0 100.0 0.0 0.0 0.0 100.0" Properties=species:S:1:pos:R:3 Energy=-358669.76780629024 pbc="F F F"
N       50.33518139      49.42056133      49.72912683
N       49.60712117      50.15968377      50.44914712
C       48.21379224      50.06090671      50.17770665
C       47.51473782      51.19319750      50.50790936
C       46.14833457      51.20076939      50.52855229
C       45.47967668      49.98026200      50.05067032
C       46.23640193      48.86787459      49.71004077
C       47.57792309      48.83422266      49.86907266
C       51.72311552      49.66772080      49.94148558
C       52.51057209      49.34083086      48.78746269
C       53.89515284      49.40177074      48.81865961
C       54.56662892      49.55480044      49.96459625
C       53.85666302      49.83891304      51.11182377
C       52.49411508      49.82412900      51.06519924
H       48.18642390      52.02520699      50.80712240
H       45.46453039      52.02955447      50.85321576
H       44.42671072      49.94568907      50.06314817
H       45.62874492      48.04005102      49.41009361
H       48.12831901      47.97044553      49.58423591
H       52.17316644      48.83058930      47.87712931
H       54.50008884      49.09011246      47.95888973
H       55.57328928      49.52926611      49.92564488
H       54.33441770      49.92787032      52.12287069
H       52.04301281      50.07335464      52.04152980
