24
Lattice="100.0 0.0 0.0 0.0 100.0 0.0 0.0 0.0 100.0" Properties=species:S:1:pos:R:3 Energy=-358676.3414107678 pbc="F F F"
N       50.46896550      50.21308715      50.41753937
N       49.66405009      49.31172752      49.95960746
C       48.22482093      49.68199758      50.08925370
C       47.68509206      50.65141293      50.92118859
C       46.32464648      50.99945500      51.05819226
C       45.47347560      50.32235135      50.14610007
C       45.96670877      49.18934741      49.30676593
C       47.33815092      48.98515388      49.20034292
C       51.79674799      49.93875947      50.16163868
C       52.22804378      49.18581568      49.04371312
C       53.61499524      49.05095179      48.96677487
C       54.53142423      49.52616387      49.91990733
C       54.01662688      50.09810648      51.03652678
C       52.66086605      50.41622305      51.14151198
H       48.53502870      51.16783438      51.52451325
H       46.01102153      51.84606972      51.72049873
H       44.32885297      50.42792129      50.10327796
H       45.27199413      48.60395042      48.63470541
H       47.63647737      48.15393028      48.54255554
H       51.45081640      48.71532995      48.53496600
H       54.10147430      48.61847535      48.10775255
H       55.67114703      49.54005395      49.84100596
H       54.76215568      50.52415627      51.77282563
H       52.16769214      50.99412932      51.89224745
