24
Lattice="100.0 0.0 0.0 0.0 100.0 0.0 0.0 0.0 100.0" Properties=species:S:1:pos:R:3 Energy=-358667.99968151294 pbc="F F F"
N       50.41720129      50.16450834      50.67043976
N       49.62876364      49.51919507      49.86601970
C       48.19624337      49.81112000      50.04042170
C       47.74162965      50.88879206      50.76449453
C       46.36555522      51.15992796      50.87590456
C       45.48821378      50.46519969      50.03354854
C       46.00145095      49.36739740      49.27956268
C       47.36110452      49.00262106      49.28030161
C       51.81508288      50.05410816      50.41827353
C       52.21265832      49.40660858      49.23809276
C       53.44295553      49.24682236      48.83403916
C       54.49095571      49.68646834      49.65009687
C       54.13465168      50.34579775      50.84108373
C       52.79481426      50.47920807      51.28246043
H       48.44971746      51.59328582      51.16417312
H       45.98453562      51.91041019      51.60639275
H       44.46004594      50.75568217      50.11542687
H       45.34724810      48.65946776      48.57574308
H       47.84182771      48.08958981      49.00309899
H       51.47555286      49.14008490      48.59385400
H       53.62328294      48.82373462      47.87306342
H       55.53995406      49.34707051      49.47061879
H       54.79722725      50.82478758      51.53736381
H       52.76214131      51.17125735      52.12693658
