24
Lattice="100.0 0.0 0.0 0.0 100.0 0.0 0.0 0.0 100.0" Properties=species:S:1:pos:R:3 Energy=-358654.5296186026 pbc="F F F"
N       50.36357183      49.60270532      49.67622233
N       49.72572723      49.63824078      50.76240485
C       48.26414690      49.82265101      50.50086033
C       47.56337484      50.82754898      51.01539176
C       46.25328580      50.96870316      50.67637962
C       45.59267366      50.13827988      49.85283521
C       46.35404294      49.10144244      49.22623356
C       47.71705655      48.98076998      49.46001233
C       51.74625353      49.59198159      49.88849161
C       52.46101018      48.86484199      48.91855512
C       53.83769866      48.89556039      48.84994832
C       54.56617253      49.54305999      49.83109713
C       53.89534504      50.27869343      50.85934654
C       52.48201829      50.17903389      51.00762880
H       47.70626438      51.66078589      51.83094424
H       45.76309395      51.84222903      51.16223011
H       44.40783463      50.23240184      49.68887755
H       45.79872720      48.46232856      48.43620935
H       48.25637105      48.15777097      48.85032159
H       51.78621040      48.45560196      48.18023988
H       54.39698226      48.55542963      48.04678519
H       55.59216537      49.43041267      49.93298476
H       54.54678675      50.89394200      51.62261148
H       52.11073725      50.68612875      51.95321481
