24
Lattice="100.0 0.0 0.0 0.0 100.0 0.0 0.0 0.0 100.0" Properties=species:S:1:pos:R:3 Energy=-358660.0136116448 pbc="F F F"
N       50.30501028      49.76278772      50.63439573
N       49.57172764      49.42594278      49.66007072
C       48.23257475      49.60017590      49.85586829
C       47.77585504      50.67266946      50.68732930
C       46.42139540      50.95020379      50.91259689
C       45.50201422      50.19249702      50.16162309
C       45.99502893      49.24486356      49.27150965
C       47.33113892      48.90441575      49.02779333
C       51.74877346      49.66597177      50.36732269
C       52.12782889      48.86626986      49.28432537
C       53.45900071      48.94165071      48.90102316
C       54.45773187      49.78395256      49.51564086
C       54.05649352      50.27917246      50.80551482
C       52.67618544      50.19819741      51.27495863
H       48.54728395      51.41601002      50.92899621
H       46.00842394      51.88599983      51.39096150
H       44.46001682      50.21487977      50.24534708
H       45.17074452      48.97385073      48.66188916
H       47.42342847      48.11400017      48.34085585
H       51.25771479      48.28225109      48.92727081
H       53.50358675      48.67789532      47.82017821
H       55.53998318      49.84071175      49.36535417
H       54.83054529      50.64665045      51.47161571
H       52.33625294      50.68315041      52.17982179
