24
Lattice="100.0 0.0 0.0 0.0 100.0 0.0 0.0 0.0 100.0" Properties=species:S:1:pos:R:3 Energy=-358660.49683763826 pbc="F F F"
N       50.21595359      49.58965253      49.81558079
N       49.55326452      50.30679454      50.63353048
C       48.22734420      50.46277783      50.23841837
C       47.32812410      51.00940097      51.11896611
C       45.94757614      50.88006540      51.05404938
C       45.46163927      50.25637038      49.83190769
C       46.38750547      49.94523182      48.82396412
C       47.65374639      49.89777670      49.08555870
C       51.68550600      49.72724340      49.93621723
C       52.43025015      48.77052959      49.24856501
C       53.87231885      48.84488818      49.31185113
C       54.62477924      49.94789004      49.83181689
C       53.79184088      51.04755109      50.19118987
C       52.38892788      50.91618182      50.31231645
H       47.71352898      51.57732808      51.99938864
H       45.33665394      51.12896619      52.00126800
H       44.33470124      50.15224098      49.64624827
H       45.90758129      49.36816653      47.99873200
H       48.34827934      49.32719918      48.44726549
H       51.90443381      48.12918700      48.42770229
H       54.32807682      48.01967100      48.82931071
H       55.66529876      49.89346218      49.73905969
H       54.37743407      51.98032900      50.38183345
H       51.78849231      51.66222791      50.90681111
