24
Lattice="100.0 0.0 0.0 0.0 100.0 0.0 0.0 0.0 100.0" Properties=species:S:1:pos:R:3 Energy=-358673.66661062563 pbc="F F F"
N       50.38110630      50.10060501      50.23817243
N       49.52347487      49.40155535      49.62579637
C       48.12649417      49.86390272      49.79471891
C       47.57259847      50.84008358      50.70320247
C       46.25849202      50.89478254      50.96969425
C       45.37862712      50.11588490      50.23505375
C       45.84157886      49.36582863      49.12159251
C       47.20830783      49.16783671      48.98827452
C       51.80400090      49.72299690      49.99539964
C       52.32240194      48.99501652      48.93715313
C       53.73406749      48.99681374      48.89116354
C       54.64490528      49.63545906      49.78856383
C       53.98842890      50.28108289      50.94913484
C       52.61653356      50.39807052      50.89818521
H       48.22181754      51.52966735      51.17127847
H       45.79818229      51.63729195      51.70305350
H       44.33373673      50.35279565      50.30436653
H       45.12136040      48.76898601      48.66379237
H       47.65099425      48.44719374      48.33985519
H       51.77551240      48.51071313      48.14224792
H       54.11233326      48.36270805      48.10910031
H       55.66626327      49.45519308      49.56998405
H       54.46597900      50.63664742      51.89089969
H       52.02797667      50.96392619      51.66103099
