24
Lattice="100.0 0.0 0.0 0.0 100.0 0.0 0.0 0.0 100.0" Properties=species:S:1:pos:R:3 Energy=-358662.6834217551 pbc="F F F"
N       50.24910105      49.45817693      49.82136043
N       49.53590274      50.48101594      50.03582243
C       48.08124767      50.25969138      49.99127445
C       47.46950359      51.06324866      51.07039582
C       46.13394859      51.10935265      51.14689874
C       45.37584024      50.13598563      50.48082097
C       45.92175058      49.56916960      49.29290771
C       47.31940664      49.56632967      49.01348625
C       51.70736388      49.66189240      50.06700598
C       52.49974605      48.96090509      49.17059646
C       53.88439211      48.95773981      49.30407972
C       54.53370110      49.89797799      50.06074376
C       53.75518129      50.77674359      50.86062248
C       52.35432674      50.63972645      50.86362418
H       48.20615013      51.49667022      51.72144782
H       45.39836179      51.59152558      51.79147845
H       44.33005731      50.11476268      50.67546784
H       45.28018512      49.01217591      48.65432485
H       47.77403776      49.03763967      48.20852155
H       52.07942435      48.40847442      48.23941319
H       54.51266071      48.53727478      48.53032055
H       55.66994269      49.98048255      50.04646945
H       54.32192620      51.48514256      51.54087824
H       51.74575089      51.27569319      51.48578215
