24
Lattice="100.0 0.0 0.0 0.0 100.0 0.0 0.0 0.0 100.0" Properties=species:S:1:pos:R:3 Energy=-358671.73691086925 pbc="F F F"
N       50.47775526      50.11483040      50.59522321
N       49.62226500      49.39857253      49.84597406
C       48.24262568      49.76160264      50.02170007
C       47.67777901      50.92192123      50.79300008
C       46.32095688      51.01360655      50.81339004
C       45.47378805      50.19190386      50.12843539
C       45.91118564      49.03580912      49.52014087
C       47.36482805      48.86040179      49.26911755
C       51.80123828      49.76932356      50.28699161
C       52.21526823      49.20897822      49.05316436
C       53.59340355      49.14422247      48.88131555
C       54.52055759      49.67241782      49.77662750
C       54.07240710      50.00812317      51.03758281
C       52.75671193      50.09891672      51.28681332
H       48.25791770      51.60377380      51.43423515
H       45.85530477      51.89010402      51.19748557
H       44.42843690      50.45179490      50.08287254
H       45.22874595      48.27693619      49.09974611
H       47.76085222      48.10989598      48.62370572
H       51.55089171      49.04722882      48.20958655
H       53.82780841      48.88946709      47.79877226
H       55.57156310      49.91082387      49.38500332
H       54.75115141      50.28430726      51.78282272
H       52.29399959      50.48154133      52.20122774
