24
Lattice="100.0 0.0 0.0 0.0 100.0 0.0 0.0 0.0 100.0" Properties=species:S:1:pos:R:3 Energy=-358672.8633693811 pbc="F F F"
N       50.28480330      49.67824858      49.74330496
N       49.63475592      50.45240490      50.51317505
C       48.29300178      50.47847841      50.29825522
C       47.40756641      50.89286060      51.28368718
C       46.02454451      50.81407780      51.09337863
C       45.40682305      50.38495384      49.84968735
C       46.34506675      50.16016309      48.79314812
C       47.68416640      50.16910194      48.96753347
C       51.81037071      49.84314189      49.96307929
C       52.59745382      48.72974644      49.58555687
C       53.97649693      48.87699265      49.42125520
C       54.53553583      50.02645827      49.80947376
C       53.84599130      51.16357485      50.08905081
C       52.41257864      51.15556324      50.18642571
H       47.86037114      51.23384398      52.21220294
H       45.30605311      50.96592014      51.87922010
H       44.38015463      50.45718935      49.68255193
H       45.87500707      50.06798210      47.78779706
H       48.36175167      50.14470841      48.09650261
H       51.98207906      47.86022177      49.42754143
H       54.64024075      48.01293940      49.23491019
H       55.61984537      50.14845978      49.59891586
H       54.34361407      52.13977823      50.10486405
H       51.86809541      52.13717796      50.16938144
