24
Lattice="100.0 0.0 0.0 0.0 100.0 0.0 0.0 0.0 100.0" Properties=species:S:1:pos:R:3 Energy=-358656.7210611519 pbc="F F F"
N       50.53237971      50.41487558      50.54746586
N       49.68936220      49.76333338      49.88707283
C       48.26590385      49.98084044      50.19127791
C       47.48670834      51.17813596      50.45384407
C       46.13343465      51.20919676      50.36244499
C       45.50071211      49.99808252      49.94513206
C       46.17526458      48.82004424      49.83306407
C       47.54170223      48.82649798      49.95327420
C       51.88704434      50.03130982      50.34647353
C       52.26030269      49.87413504      48.95724308
C       53.59430216      49.61620300      48.67990822
C       54.46090079      49.26238418      49.74684510
C       54.19906196      49.54088018      51.04332448
C       52.84868444      49.96566184      51.39933857
H       48.20952521      52.02273197      50.69554831
H       45.44445523      52.12855702      50.70587043
H       44.55002404      49.89019614      49.37448064
H       45.45632950      47.97656993      49.58073646
H       48.13963483      47.87144298      49.73957611
H       51.49997768      50.03359218      48.15534297
H       53.88726010      49.41777858      47.58483156
H       55.44997596      49.02054670      49.42967905
H       55.02023970      49.54125591      51.64106578
H       52.48119051      50.02989460      52.41516844
