24
Lattice="100.0 0.0 0.0 0.0 100.0 0.0 0.0 0.0 100.0" Properties=species:S:1:pos:R:3 Energy=-358663.18807211873 pbc="F F F"
N       50.47126558      50.23092533      50.55888357
N       49.55311988      49.65496647      49.86379640
C       48.18325673      50.13479267      50.18053989
C       47.64315489      50.91116855      51.14874967
C       46.31948958      51.21052914      50.99103161
C       45.41533262      50.49909986      50.13560905
C       45.93206438      49.59430589      49.23138283
C       47.33288731      49.46958986      49.34924948
C       51.83582321      49.88615524      50.39944851
C       52.41742932      49.06994500      49.32368342
C       53.79515470      49.12532084      49.01629081
C       54.59960816      50.05294980      49.77377643
C       54.00383453      50.64806606      50.90471657
C       52.61132515      50.72666224      51.15429994
H       48.27948710      51.37804668      51.95264809
H       45.71217670      51.70211709      51.78742727
H       44.36802241      50.74295630      50.25342872
H       45.12834194      49.25106097      48.54297001
H       47.85149516      48.70709332      48.69843672
H       51.69277243      48.29788291      48.81175019
H       54.12650323      48.66317084      48.03321509
H       55.63197759      50.23909788      49.50296830
H       54.65922407      51.33143270      51.44652892
H       52.16423486      51.26549909      51.96678491
