24
Lattice="100.0 0.0 0.0 0.0 100.0 0.0 0.0 0.0 100.0" Properties=species:S:1:pos:R:3 Energy=-358657.0001209447 pbc="F F F"
N       50.40135365      49.35323349      49.82494927
N       49.73159659      50.14753622      50.57801530
C       48.36523568      50.22381367      50.23492786
C       47.68755569      51.11270688      51.12980031
C       46.34780885      51.19044173      51.10743875
C       45.57661399      50.28170369      50.19264216
C       46.30128959      49.57671308      49.21638534
C       47.65329738      49.67640175      49.18862518
C       51.76333694      49.63478007      49.74436278
C       52.69131929      48.87494454      48.95982157
C       54.12592465      49.08751359      49.17727783
C       54.48553425      49.91674722      50.22340142
C       53.51068761      50.81901446      50.81907551
C       52.17409550      50.73563574      50.57746731
H       48.47810988      51.59081090      51.71997979
H       45.64761104      51.82120499      51.72610683
H       44.45655611      50.43260079      50.35836102
H       45.85799465      48.79787828      48.54309310
H       48.25334887      49.22015100      48.39930397
H       52.17367302      48.17879501      48.27389317
H       54.80853189      48.58901335      48.56065794
H       55.54344389      49.99954728      50.34057505
H       53.87869299      51.42644688      51.63562397
H       51.46954382      51.17897142      51.14380086
