24
Lattice="100.0 0.0 0.0 0.0 100.0 0.0 0.0 0.0 100.0" Properties=species:S:1:pos:R:3 Energy=-358668.88855441334 pbc="F F F"
N       50.22325240      49.84675954      50.20892785
N       49.46597849      49.40346297      49.26715054
C       48.14308534      49.66958344      49.73430045
C       47.86910151      50.73016505      50.55172529
C       46.59715650      51.06123132      50.80999296
C       45.56215844      50.37133428      50.22521774
C       45.83570222      49.39067525      49.26792488
C       47.14066858      48.92257051      49.05123472
C       51.58479065      49.75919009      50.09404985
C       52.21131792      49.25228002      48.90232859
C       53.58442397      49.16575863      48.79033054
C       54.40328973      49.73380783      49.72529141
C       53.88354387      50.32473200      50.96546882
C       52.46792462      50.30057024      51.16602396
H       48.69359980      51.22253567      51.09913246
H       46.35363682      51.87559202      51.40752225
H       44.56689452      50.79568868      50.33718368
H       45.09226118      49.01328766      48.55831966
H       47.39026398      48.12440798      48.27007921
H       51.60724944      48.68864545      48.20754022
H       54.16735937      48.68344785      47.90552870
H       55.43310548      49.36129890      49.63603274
H       54.48652453      50.47351455      51.89147595
H       52.02622922      50.55079792      52.09447130
