24
Lattice="100.0 0.0 0.0 0.0 100.0 0.0 0.0 0.0 100.0" Properties=species:S:1:pos:R:3 Energy=-358668.47761288774 pbc="F F F"
N       50.27883284      49.89261535      49.64142597
N       49.66356389      50.78237691      50.27536049
C       48.29034448      50.77158026      50.16456316
C       47.43286136      51.00128391      51.28158688
C       46.03812817      50.84997837      51.02281072
C       45.57127070      50.38475695      49.80460490
C       46.44482716      50.08873622      48.74822424
C       47.75697393      50.26376350      48.97511201
C       51.69030512      49.96633870      49.72914649
C       52.42804844      48.76432545      49.46783070
C       53.82227770      48.86926315      49.34687950
C       54.42308858      50.12680783      49.77392127
C       53.73773488      51.22349342      50.17669889
C       52.28039975      51.16181484      50.11880143
H       47.90639540      51.37836478      52.19938107
H       45.40368080      51.10224061      51.83269361
H       44.55951495      50.11942926      49.56206563
H       45.98246737      49.79528680      47.80061893
H       48.56110826      50.13575667      48.21471568
H       51.75707893      47.84117853      49.14626092
H       54.44709680      48.06298116      48.84556148
H       55.44048505      50.00454215      49.61598177
H       54.39478673      52.15882147      50.47292474
H       51.60197403      51.81709090      50.47764951
