24
Lattice="100.0 0.0 0.0 0.0 100.0 0.0 0.0 0.0 100.0" Properties=species:S:1:pos:R:3 Energy=-358658.8721594021 pbc="F F F"
N       50.58792257      50.69212900      50.04879687
N       49.75419375      50.02965281      49.37659529
C       48.30981218      50.18470876      49.69204710
C       47.69608663      50.62583804      50.88684757
C       46.25245159      50.62194717      51.15966788
C       45.47393257      50.50334551      49.98467884
C       46.11585841      50.14695300      48.82947771
C       47.42311926      49.87391326      48.74931709
C       51.97208300      50.35728122      49.72816694
C       52.42026030      49.19859106      49.11400480
C       53.79802160      48.87271898      49.13805721
C       54.68586886      49.65638028      49.89772774
C       54.25091922      50.88577022      50.51243617
C       52.93489949      51.15610785      50.39328593
H       48.44517059      50.57942663      51.64045530
H       46.05297014      50.64778129      52.22876482
H       44.33803605      50.62667424      49.96230566
H       45.65831040      50.08581765      47.77123518
H       47.92178649      49.50828484      47.89018983
H       51.73561635      48.52451062      48.50512931
H       54.05517957      47.94328953      48.53153571
H       55.66196395      49.15604490      50.06967920
H       55.08709526      51.48438293      50.96070983
H       52.38942176      52.05671047      50.82710656
