24
Lattice="100.0 0.0 0.0 0.0 100.0 0.0 0.0 0.0 100.0" Properties=species:S:1:pos:R:3 Energy=-358661.1091393964 pbc="F F F"
N       50.34268506      50.23737996      50.48233583
N       49.55637491      49.44068329      49.85341907
C       48.15530279      49.66759935      50.03982012
C       47.64285607      50.56763922      51.05560238
C       46.34043342      50.91727867      50.99720514
C       45.44090163      50.40691830      50.03341164
C       45.81018561      49.56762250      49.00093846
C       47.19873342      49.09936565      49.06152490
C       51.78211209      50.05566033      50.18065247
C       52.16105789      49.26176621      49.06532190
C       53.49959418      48.83314121      48.99030853
C       54.43679781      49.52170353      49.82462561
C       54.13529316      50.50584113      50.83420643
C       52.75327923      50.72603890      50.98612184
H       48.23712316      51.15871481      51.71354337
H       45.99560495      51.53504987      51.84662361
H       44.48822878      50.79007372      50.13738723
H       45.06226006      49.48996629      48.13281856
H       47.76698847      48.56628974      48.24887659
H       51.46663993      48.62886507      48.63830233
H       53.93889010      48.46495013      48.11596867
H       55.51177122      49.24094590      49.77688608
H       54.83349121      51.13152835      51.38887097
H       52.33777514      51.16568518      51.88403133
