24
Lattice="100.0 0.0 0.0 0.0 100.0 0.0 0.0 0.0 100.0" Properties=species:S:1:pos:R:3 Energy=-358667.13666125236 pbc="F F F"
N       50.15475217      49.95495650      50.05750453
N       49.38814987      49.34968297      49.21549779
C       48.10499628      49.74404679      49.52385706
C       47.77867197      50.96606672      49.97460515
C       46.53801307      51.28954697      50.46583442
C       45.46699877      50.40553829      50.42460963
C       45.86679024      49.07484151      50.05620447
C       47.12008781      48.76106939      49.44033602
C       51.56907713      49.91210363      49.98175393
C       52.26355554      50.14763247      48.80470121
C       53.64023362      49.91522587      48.77228952
C       54.35878069      49.65952827      49.92684767
C       53.65202315      49.49936415      51.18913327
C       52.29399474      49.71799740      51.22157832
H       48.62218410      51.54576188      50.08603148
H       46.29659186      52.19957894      50.97792150
H       44.51345005      50.77825124      50.68963181
H       45.09478023      48.30674437      50.07849680
H       47.31312408      47.80042106      48.97150340
H       51.70445695      50.39989733      47.84472887
H       54.10528999      50.01867473      47.83519379
H       55.48654995      49.80479704      49.92699529
H       54.23474606      49.51375780      52.16480621
H       51.62518577      49.64559116      52.05438385
