24
Lattice="100.0 0.0 0.0 0.0 100.0 0.0 0.0 0.0 100.0" Properties=species:S:1:pos:R:3 Energy=-358666.1655495318 pbc="F F F"
N       50.45540586      50.14403245      49.60315308
N       49.59286940      49.28771871      49.87398999
C       48.21442896      49.81591095      49.96362127
C       47.78512557      51.15789164      50.24504393
C       46.38119818      51.45569663      50.46479985
C       45.53652746      50.34842936      50.43903024
C       45.90411598      48.99848090      50.22721074
C       47.27812924      48.74658282      49.97670846
C       51.85209821      49.95089189      49.77143774
C       52.75464967      50.63121441      49.01592265
C       54.02632956      50.56144708      49.39191871
C       54.48945653      49.62588753      50.27459038
C       53.56111832      48.95131035      51.13704579
C       52.24181973      49.17228401      50.90186135
H       48.43423691      51.83751406      50.68047170
H       45.88402930      52.33909632      50.91045308
H       44.47835379      50.51802641      50.64566040
H       45.16686766      48.23981791      50.07747183
H       47.69898786      47.66090368      49.90218906
H       52.40092357      51.32934870      48.21020566
H       54.78227867      51.19813341      48.92258350
H       55.52164621      49.49309557      50.51504399
H       53.94193816      48.15777644      51.78979434
H       51.55540788      48.82200082      51.63886431
