24
Lattice="100.0 0.0 0.0 0.0 100.0 0.0 0.0 0.0 100.0" Properties=species:S:1:pos:R:3 Energy=-358668.5313341966 pbc="F F F"
N       50.35988562      49.86219356      49.44983617
N       49.74349478      50.51825807      50.38636252
C       48.33113817      50.19911804      50.32703546
C       47.44705154      51.12739906      50.81784758
C       46.08391744      51.07726687      50.64696342
C       45.51787024      49.95547144      49.99585076
C       46.40420473      48.90809472      49.56523008
C       47.82627626      49.07223485      49.69729720
C       51.66842455      49.79235695      49.74125985
C       52.42555169      49.09320829      48.73664903
C       53.89589654      49.14948375      48.80141892
C       54.48320663      49.50193681      50.02320219
C       53.69630727      49.92835802      51.12867040
C       52.38399741      50.14721421      50.94405456
H       47.88978044      51.98578752      51.22009756
H       45.38646699      51.85380643      51.18893487
H       44.42977855      49.95662408      49.83974618
H       45.89433303      48.01421248      49.11364675
H       48.50428446      48.29798360      49.16704942
H       51.83651218      48.48931054      47.95406990
H       54.58574688      48.60274389      47.91042728
H       55.57022145      49.40552361      50.14217321
H       54.11126679      50.26888378      52.08957272
H       51.80926455      50.53159123      51.79921350
