24
Lattice="100.0 0.0 0.0 0.0 100.0 0.0 0.0 0.0 100.0" Properties=species:S:1:pos:R:3 Energy=-358662.59003607003 pbc="F F F"
N       50.39945724      50.37735202      50.05003312
N       49.60117829      49.94671054      49.16049760
C       48.26179913      50.08357896      49.55571621
C       47.73852242      50.94695682      50.56511452
C       46.49591478      50.88421147      51.08075298
C       45.57370493      50.02737397      50.43284132
C       46.02293168      49.15082794      49.48259242
C       47.29082265      49.22011406      49.03062540
C       51.85027350      50.00334943      49.86024731
C       52.46123817      49.40869888      48.78733829
C       53.87529272      49.06537548      48.87774986
C       54.61418940      49.38518229      50.11961134
C       53.99597063      50.08618750      51.16393777
C       52.60086025      50.30554793      50.98042364
H       48.48656794      51.68417800      51.02388198
H       46.21050408      51.48729351      51.87951148
H       44.50014550      49.89630982      50.54188663
H       45.35369389      48.43883150      49.12355737
H       47.52621950      48.78644702      48.05313948
H       51.90539914      49.04198867      47.94679109
H       54.38190491      48.31582200      48.21051956
H       55.49985450      48.91063341      50.49638667
H       54.45963238      50.50782694      52.05320891
H       52.02543027      50.93148523      51.66531262
