24
Lattice="100.0 0.0 0.0 0.0 100.0 0.0 0.0 0.0 100.0" Properties=species:S:1:pos:R:3 Energy=-358677.7090461844 pbc="F F F"
N       50.22943591      50.23497991      49.98984789
N       49.39111081      49.42498293      49.41553924
C       48.10115263      49.93817568      49.72247358
C       47.74987468      50.34744512      50.99378559
C       46.43693232      50.70254184      51.16746941
C       45.47302007      50.66398023      50.17359744
C       45.82049406      50.25298038      48.88162014
C       47.13614018      49.89748120      48.68883821
C       51.64450167      50.07593432      49.78412203
C       52.29400293      48.95856070      49.21849370
C       53.68745956      48.88904427      49.27730790
C       54.45853097      49.93552500      49.91940458
C       53.80370089      50.99416426      50.56016133
C       52.34868552      51.06507722      50.50021827
H       48.54600649      50.53394704      51.66483577
H       46.15117143      51.06396237      52.18883402
H       44.44863161      50.97102741      50.48768790
H       45.14234380      50.43765662      47.97059647
H       47.50784707      49.31695385      47.81116598
H       51.90837641      48.18763457      48.53871603
H       54.18125745      48.06951072      48.77183983
H       55.55136839      49.74400223      49.95377708
H       54.40837118      51.74305666      51.19239373
H       51.75666089      51.93048928      50.71620448
