24
Lattice="100.0 0.0 0.0 0.0 100.0 0.0 0.0 0.0 100.0" Properties=species:S:1:pos:R:3 Energy=-358663.69149954605 pbc="F F F"
N       50.44429510      49.94938663      49.71412856
N       49.73972988      50.91116314      50.14476853
C       48.23194614      50.49940629      50.14799403
C       47.47631186      51.28368472      51.03285226
C       46.11188162      51.09029892      51.17880159
C       45.41377581      50.21209828      50.23962104
C       46.24755145      49.35346147      49.41998113
C       47.65964065      49.49279770      49.31651385
C       51.90831204      50.11480446      49.78228767
C       52.60476519      49.15286775      48.91106305
C       54.01189561      48.96710417      49.13255321
C       54.59874332      49.75318513      50.16690093
C       53.90515926      50.52581628      51.05922072
C       52.51818348      50.69345633      50.97594475
H       48.14213224      51.89354525      51.62739368
H       45.46209838      51.76769041      51.84587419
H       44.37431700      49.84908391      50.27672948
H       45.64664451      48.70231907      48.88917949
H       48.28069653      49.00305989      48.45399709
H       51.96513481      48.58480983      48.15080542
H       54.58696092      48.10645475      48.72412622
H       55.62568300      49.59884294      50.37113517
H       54.41666856      51.12925707      51.80020639
H       51.96571161      51.00502130      51.84919458
