24
Lattice="100.0 0.0 0.0 0.0 100.0 0.0 0.0 0.0 100.0" Properties=species:S:1:pos:R:3 Energy=-358669.99873914535 pbc="F F F"
N       50.50428935      50.82198606      50.21911903
N       49.71172207      49.88018863      50.01114848
C       48.23915371      50.09841012      49.96355175
C       47.58329961      50.31644627      51.26552132
C       46.20136624      50.40094692      51.29464072
C       45.46035468      50.51022158      50.12071077
C       46.11021463      50.20887287      48.88266342
C       47.46044094      50.19447501      48.76262882
C       51.94931655      50.35530320      50.13047663
C       52.25876322      49.05812672      49.82179720
C       53.56464080      48.71515371      49.64343105
C       54.59895333      49.68734404      49.79047447
C       54.24675956      50.89420470      50.32253295
C       52.97057869      51.24749603      50.50986289
H       48.08314322      50.27841058      52.25301109
H       45.59462522      50.70104848      52.21107558
H       44.33085244      50.66799472      50.30181080
H       45.47137296      50.22429576      47.94014781
H       47.95366887      50.12771448      47.74698891
H       51.36232147      48.41129713      49.70898600
H       53.81972617      47.72060206      49.34232380
H       55.66914756      49.54167159      49.57357241
H       55.07294317      51.53827437      50.60166158
H       52.71596290      52.27939794      50.77864489
