24
Lattice="100.0 0.0 0.0 0.0 100.0 0.0 0.0 0.0 100.0" Properties=species:S:1:pos:R:3 Energy=-358664.6318646427 pbc="F F F"
N       50.39331701      50.23274448      50.51651331
N       49.67320780      49.56261248      49.80134011
C       48.24846720      49.95051762      49.91340289
C       47.73855317      50.89583396      50.78810994
C       46.38543927      50.83597548      51.03011093
C       45.43129719      50.23854267      50.24358525
C       45.88717242      49.43198350      49.23488567
C       47.31537947      49.20262160      49.17742987
C       51.74204155      49.99799246      50.16677266
C       52.23514743      49.30448020      48.98690365
C       53.71371432      49.02165907      48.95295772
C       54.56986917      49.43307316      49.98887554
C       54.08929846      50.43757310      50.91185921
C       52.68212647      50.56790180      51.05147953
H       48.40580291      51.58593242      51.33105794
H       45.91543118      51.39656272      51.82494878
H       44.41888975      50.28217739      50.56050654
H       45.33295763      49.10832512      48.40217658
H       47.69700270      48.41406758      48.56380830
H       51.45747719      48.95622039      48.18011575
H       54.24242441      48.52398035      48.09870892
H       55.58111025      49.10370160      49.83358557
H       54.72328910      50.67361759      51.78755670
H       52.34420537      51.13799186      51.90129108
