24
Lattice="100.0 0.0 0.0 0.0 100.0 0.0 0.0 0.0 100.0" Properties=species:S:1:pos:R:3 Energy=-358673.08166800137 pbc="F F F"
N       50.24961505      49.76537755      49.61818953
N       49.55840310      50.46007814      50.43878909
C       48.11645005      50.25181916      50.18617720
C       47.29245230      51.01140218      51.10004354
C       45.86026919      51.11117844      50.79215594
C       45.28960064      50.52066618      49.67183242
C       46.25420631      49.88252150      48.81344115
C       47.59370969      49.70217234      48.99820048
C       51.72471336      49.99385375      49.74499837
C       52.46601028      48.97520209      49.00047714
C       53.89845633      48.92136604      48.97897875
C       54.61624068      49.96557201      49.68472731
C       53.88598958      50.95947552      50.34428392
C       52.51792061      50.97552361      50.37850762
H       47.54199186      51.57373580      51.97495859
H       45.36991636      51.66293673      51.57303699
H       44.27402666      50.50536260      49.39062631
H       45.88828200      49.21866742      48.02504141
H       48.21167666      49.20340268      48.30693837
H       51.84522783      48.14919405      48.52762647
H       54.49045872      48.23896876      48.34937362
H       55.72597334      49.84051141      49.92607718
H       54.45555105      51.78823355      50.73390269
H       51.99011273      51.85080595      50.83499618
