24
Lattice="100.0 0.0 0.0 0.0 100.0 0.0 0.0 0.0 100.0" Properties=species:S:1:pos:R:3 Energy=-358658.78514675965 pbc="F F F"
N       50.35184348      50.32085099      50.64664990
N       49.58667350      49.77855304      49.80404692
C       48.24586210      49.98447647      50.01978788
C       47.67362557      50.99281853      50.77116341
C       46.31707211      51.12223343      50.94943239
C       45.45620346      50.23024061      50.10175505
C       45.98643049      49.03466389      49.52120147
C       47.43428498      48.93314528      49.57265180
C       51.85062534      50.17085810      50.33904505
C       52.30200669      49.61711248      49.13008791
C       53.54377865      49.22122006      48.88741619
C       54.51935489      49.39799804      49.81260707
C       54.17531827      49.99137653      51.09502789
C       52.77165652      50.34953935      51.39170351
H       48.28770782      51.69992855      51.33218773
H       46.04800769      51.90677656      51.63147331
H       44.44892160      50.61464541      49.76259597
H       45.39744334      48.33569121      48.92570919
H       47.91307946      48.09322344      48.88080052
H       51.60989603      49.53759417      48.24297774
H       53.80229286      48.92812749      47.84672434
H       55.55107840      49.02726032      49.70868396
H       54.92761869      50.02182289      51.81736226
H       52.45913820      51.08421969      52.15327566
