24
Lattice="100.0 0.0 0.0 0.0 100.0 0.0 0.0 0.0 100.0" Properties=species:S:1:pos:R:3 Energy=-358670.285464732 pbc="F F F"
N       50.41753434      50.50226290      50.21980735
N       49.53819245      49.82542561      49.55252690
C       48.16944071      50.19486391      49.77542268
C       47.68089637      50.62305920      51.01216397
C       46.27438870      50.73425142      51.22336803
C       45.36763506      50.41345480      50.22396543
C       45.91022950      49.85994266      49.01311443
C       47.20509396      49.76240832      48.76867854
C       51.86284642      50.12526510      50.04804510
C       52.35298050      49.16724134      49.11635835
C       53.78267463      48.82207390      49.19695763
C       54.68751919      49.67355200      50.05613517
C       54.12678462      50.79714057      50.65577806
C       52.77119494      51.00077387      50.63677949
H       48.46111163      51.05023031      51.62818518
H       45.82428525      51.08543216      52.18325463
H       44.33155783      50.51833592      50.44873191
H       45.21928100      49.57953347      48.19844841
H       47.54620300      49.34239849      47.81674537
H       51.78323372      48.60127964      48.41124600
H       54.20477706      48.09216758      48.56026519
H       55.66844217      49.40495584      50.24764754
H       54.70412514      51.61039230      50.97126055
H       52.48893986      51.90783242      51.17526548
