24
Lattice="100.0 0.0 0.0 0.0 100.0 0.0 0.0 0.0 100.0" Properties=species:S:1:pos:R:3 Energy=-358659.47195594804 pbc="F F F"
N       50.48367131      49.84346189      50.38791314
N       49.69253557      49.35638418      49.50163885
C       48.26185647      49.72084378      49.65111722
C       47.75775161      50.84092295      50.31915888
C       46.42681789      51.10435220      50.49371843
C       45.45035953      50.21514850      50.07470083
C       45.89222847      49.10741131      49.34742131
C       47.28134710      48.78908725      49.20840622
C       51.82758237      49.49651671      50.04310241
C       52.43827437      49.06738384      48.79708921
C       53.79773229      49.24022201      48.54381129
C       54.59900306      49.86443585      49.58056478
C       54.07538542      50.08177039      50.87640848
C       52.68597094      49.88244699      51.09241968
H       48.41913374      51.56784478      50.74416760
H       45.98035423      51.89291366      51.17103001
H       44.39808500      50.23760019      50.37145365
H       45.14744497      48.52057182      48.87617728
H       47.71947992      48.10708634      48.56542363
H       51.83651209      48.82147687      47.88492092
H       54.20847950      48.57564475      47.87595294
H       55.60191500      49.91267782      49.23376081
H       54.80275670      50.44731945      51.74171009
H       52.33282091      50.20489227      52.12404706
