24
Lattice="100.0 0.0 0.0 0.0 100.0 0.0 0.0 0.0 100.0" Properties=species:S:1:pos:R:3 Energy=-358661.5492008437 pbc="F F F"
N       50.26337458      50.01902269      50.21769304
N       49.53774069      49.41628573      49.39216410
C       48.17420893      49.75453093      49.72712248
C       47.66236177      50.96107120      50.33899567
C       46.29183217      51.01365386      50.61600436
C       45.35053397      49.94607364      50.44302614
C       45.96683913      48.78977315      49.92364057
C       47.26938449      48.79618908      49.42016706
C       51.68397583      49.73195252      50.07273466
C       52.46316530      49.49635211      48.76813781
C       53.80842821      49.31069780      48.75393965
C       54.50477776      49.43790476      49.97019434
C       53.80227670      49.59227928      51.22861371
C       52.41689167      49.55945196      51.25182839
H       48.35505614      51.65088881      50.75445323
H       45.97105168      52.10284154      50.84711374
H       44.33324602      50.03989527      50.84182449
H       45.33271121      47.89715846      49.66451897
H       47.76094682      47.97453776      48.93717508
H       52.03875567      49.91536889      47.84180961
H       54.34051517      49.35455456      47.76718784
H       55.66675398      49.41292866      50.03355981
H       54.40954510      49.65274585      52.14340646
H       52.02918655      49.36977160      52.23281216
