24
Lattice="100.0 0.0 0.0 0.0 100.0 0.0 0.0 0.0 100.0" Properties=species:S:1:pos:R:3 Energy=-358667.33788006555 pbc="F F F"
N       50.51031347      50.82382406      50.21818979
N       49.66050446      50.30353048      49.42007740
C       48.23150491      50.39566559      49.71956786
C       47.69478288      50.27602546      51.01793341
C       46.33495806      50.12389935      51.27909603
C       45.44722885      50.10554628      50.22250281
C       46.01085409      50.28552597      48.93877017
C       47.31905620      50.61579400      48.68527441
C       51.93041143      50.41666492      49.91693964
C       52.32910415      49.07538419      49.64564790
C       53.65937482      48.56615788      49.73862420
C       54.58808024      49.53474428      50.14267523
C       54.25404358      50.89036015      50.17815154
C       52.98759829      51.35182220      50.17451517
H       48.27894061      50.27596717      51.93233937
H       45.83504791      49.91270713      52.28443919
H       44.33664183      50.05763498      50.40126206
H       45.36969963      50.40316245      48.08304890
H       47.63890449      50.70645794      47.71556081
H       51.59994332      48.23379995      49.53131426
H       53.95307914      47.55563638      49.57402146
H       55.66335817      49.35889277      50.23967238
H       54.98659314      51.70073992      50.06004673
H       52.84546831      52.44436362      50.30415842
