24
Lattice="100.0 0.0 0.0 0.0 100.0 0.0 0.0 0.0 100.0" Properties=species:S:1:pos:R:3 Energy=-358663.9438028125 pbc="F F F"
N       50.41443538      50.22367999      50.32065966
N       49.63851545      49.42273278      49.84358135
C       48.22472317      49.72728203      50.00747872
C       47.67733984      50.72219747      50.72987973
C       46.43814711      51.09762867      50.70922066
C       45.50842237      50.22045109      50.12589080
C       45.93742494      49.03507669      49.58866909
C       47.30382785      48.85212774      49.41643809
C       51.74276566      49.84182194      50.21681970
C       52.18769542      49.23647094      49.00003772
C       53.60504869      49.31868001      48.80417150
C       54.51751928      49.56003488      49.84363887
C       54.01170297      49.87913304      51.09689200
C       52.62392964      50.12619099      51.33102595
H       48.26692824      51.39130427      51.41231641
H       46.08575313      52.03305476      51.20937952
H       44.40307394      50.51830517      50.05621984
H       45.21708450      48.41345981      49.16021753
H       47.61212078      47.96694524      48.90305748
H       51.59819522      49.28697689      48.04641983
H       53.98423277      49.19377500      47.71909967
H       55.59692606      49.76394995      49.81622248
H       54.74102540      50.00334349      51.98667290
H       52.22293072      50.56337553      52.28090033
