24
Lattice="100.0 0.0 0.0 0.0 100.0 0.0 0.0 0.0 100.0" Properties=species:S:1:pos:R:3 Energy=-358684.30536733265 pbc="F F F"
N       50.40094166      50.42656293      50.28004856
N       49.52153195      49.67331415      49.73103254
C       48.12712396      49.99801015      49.97721196
C       47.58001496      50.64108191      51.07390414
C       46.21536733      50.85448522      51.08115985
C       45.39573859      50.62913764      49.95771016
C       45.97054837      49.98441664      48.81225237
C       47.25322200      49.65897550      48.93714029
C       51.77487734      50.06745157      49.97988482
C       52.35151495      48.99362273      49.24257050
C       53.78844042      48.96376171      49.10521020
C       54.63806657      49.86847442      49.75668208
C       54.10350501      50.84806375      50.56063407
C       52.70077097      50.99098658      50.62417553
H       48.23791337      50.89178436      51.92445218
H       45.78317826      51.28185942      51.98245117
H       44.24308586      50.80459395      50.03417922
H       45.39423450      49.48214458      48.01754883
H       47.77715496      49.08568696      48.11767539
H       51.72898316      48.16271842      48.85389995
H       54.29787029      48.16725501      48.50123071
H       55.75691414      49.73152170      49.61875938
H       54.65641164      51.56070091      51.18876466
H       52.39140383      51.83728158      51.18180893
