24
Lattice="100.0 0.0 0.0 0.0 100.0 0.0 0.0 0.0 100.0" Properties=species:S:1:pos:R:3 Energy=-358670.6054668774 pbc="F F F"
N       50.39677781      49.94816030      49.62467876
N       49.60001013      50.52248673      50.43851098
C       48.28901276      50.48424127      50.06072139
C       47.52160004      50.73277701      51.19717676
C       46.15101718      50.66755706      51.14730242
C       45.47560715      50.35889998      49.92714563
C       46.29147524      49.96759654      48.81252640
C       47.69346951      50.07259536      48.80651244
C       51.76668446      49.92794956      49.79753130
C       52.40748493      48.75442454      49.26456296
C       53.81437464      48.75194218      49.45537497
C       54.52416475      49.90291977      49.98622405
C       53.84370183      51.06144485      50.18435143
C       52.46069885      51.05549663      50.19990903
H       47.93442362      50.76187053      52.13864821
H       45.57625293      50.83574155      52.07387510
H       44.32347683      50.40223101      49.78389898
H       45.90937338      49.62409418      47.86135179
H       48.38508960      49.78510721      48.02435962
H       51.69048776      48.11876257      48.69883749
H       54.47576985      48.00570836      49.10134272
H       55.67652317      49.85905823      50.04296208
H       54.27772675      51.99429164      50.18848840
H       51.94073308      51.92029930      50.56043216
