24
Lattice="100.0 0.0 0.0 0.0 100.0 0.0 0.0 0.0 100.0" Properties=species:S:1:pos:R:3 Energy=-358658.18969443854 pbc="F F F"
N       50.19978161      50.03820573      50.36215984
N       49.50704430      50.28240814      49.28976269
C       48.07558590      50.18066824      49.66098963
C       47.69021346      50.15569563      51.02112686
C       46.43576320      50.37342444      51.44533548
C       45.45795873      50.62033421      50.49896917
C       45.71126925      50.57154498      49.06759717
C       47.14078259      50.47980514      48.64118241
C       51.66738044      50.06486203      50.11017029
C       52.29899466      48.83986219      49.99688611
C       53.70274605      48.86521681      49.87654953
C       54.40539874      50.06243749      50.09207621
C       53.71991883      51.21738866      50.22127825
C       52.33134121      51.24056014      50.16893303
H       48.51593496      49.96073761      51.69906302
H       46.21026069      50.48230044      52.46170674
H       44.43590985      50.84093935      50.65814510
H       44.86691903      50.87263659      48.35377075
H       47.22455280      50.43462195      47.53829326
H       51.74100533      47.95927064      49.88505652
H       54.30743988      47.90967701      49.63148385
H       55.56409015      50.00449487      50.38785123
H       54.16643147      52.09032299      50.75641619
H       51.64146046      52.07432381      50.37225566
