24
Lattice="100.0 0.0 0.0 0.0 100.0 0.0 0.0 0.0 100.0" Properties=species:S:1:pos:R:3 Energy=-358675.1120557492 pbc="F F F"
N       50.32147086      50.41861665      50.44684412
N       49.50083018      49.68692819      49.71811586
C       48.14859374      50.01793624      49.88814264
C       47.67704331      50.78652081      50.89712721
C       46.25625462      50.91115231      51.03014561
C       45.43923451      50.57443732      50.00293418
C       45.97333106      49.73667191      49.03943790
C       47.29349195      49.42469968      48.97778421
C       51.69987332      50.11969894      50.08870887
C       52.25146478      49.18881441      49.13816237
C       53.62998052      49.00694584      48.94845810
C       54.60838245      49.77986361      49.75272613
C       54.05583691      50.66533051      50.69396022
C       52.70556618      50.83886098      50.87161248
H       48.42140238      51.06399902      51.63054352
H       45.82457241      51.29679262      51.92786285
H       44.35659750      50.65938295      50.13132752
H       45.14396675      49.52841162      48.28761987
H       47.67815727      48.88172771      48.13240661
H       51.57202786      48.62280967      48.56251287
H       53.84520003      48.34032998      48.07213715
H       55.64340250      49.64164122      49.41089720
H       54.74440984      51.25331358      51.28930009
H       52.31443429      51.65967002      51.55910198
