24
Lattice="100.0 0.0 0.0 0.0 100.0 0.0 0.0 0.0 100.0" Properties=species:S:1:pos:R:3 Energy=-358668.3774535843 pbc="F F F"
N       50.32460804      50.04112816      50.59479415
N       49.57641042      49.57323474      49.69914556
C       48.18547719      49.72980398      49.96600828
C       47.76842419      50.77236461      50.81264438
C       46.40234003      51.07841607      50.82675616
C       45.39850130      50.07922417      50.26497062
C       45.89004914      48.89181666      49.55688356
C       47.27949484      48.79900993      49.27533325
C       51.77493808      50.02934895      50.28560341
C       52.23928257      49.36845363      49.07829087
C       53.59144375      49.11402143      48.81686290
C       54.53192923      49.35217138      49.91073217
C       54.03238890      49.82994848      51.15353509
C       52.72974185      50.18795260      51.27346424
H       48.37688104      51.46768733      51.33826791
H       46.02512894      51.96799958      51.19398701
H       44.35075671      50.27927539      50.20732894
H       45.04315603      48.24302151      49.14103179
H       47.76940385      48.03200042      48.57150848
H       51.43418675      49.16014581      48.38536551
H       53.80539592      48.81020129      47.79385967
H       55.64924329      49.17663570      49.86139220
H       54.72957307      49.86780395      51.93035574
H       52.48201635      50.63086438      52.20614033
