24
Lattice="100.0 0.0 0.0 0.0 100.0 0.0 0.0 0.0 100.0" Properties=species:S:1:pos:R:3 Energy=-358670.4516380353 pbc="F F F"
N       50.46305503      50.53015461      50.68881986
N       49.73146097      50.41852792      49.64490235
C       48.34433052      50.36658455      49.88018580
C       47.73700561      51.06587719      50.97637484
C       46.30127486      50.98433375      51.14205450
C       45.48735179      50.04590058      50.40265424
C       46.11086490      49.42308690      49.29702236
C       47.46911187      49.63948327      49.01191937
C       51.74093866      50.26288485      50.27541741
C       52.07521614      49.32931953      49.36700480
C       53.41034401      48.93176895      49.13649532
C       54.43899260      49.60170986      49.89803005
C       54.04607939      50.56701388      50.84866829
C       52.67014265      50.84249472      51.13684157
H       48.28605377      51.71870264      51.66335064
H       45.99199288      51.75758894      51.78425403
H       44.45564086      49.78361540      50.71546835
H       45.65593388      48.68058967      48.61319634
H       47.96705436      49.24503036      48.07766950
H       51.20960959      48.86507637      48.81408317
H       53.76578430      48.24241107      48.47110468
H       55.54435914      49.34384698      49.90734069
H       54.82317023      51.23942943      51.22312384
H       52.42057357      51.60449825      51.92233050
