24
Lattice="100.0 0.0 0.0 0.0 100.0 0.0 0.0 0.0 100.0" Properties=species:S:1:pos:R:3 Energy=-358686.40625 Energy_pyscf=-358681.53193010663 Energy_nn=-358682.375 pbc="F F F"
N       50.36275044      50.23648283      50.67747270
N       49.62269002      49.95702566      49.67003749
C       48.22275899      50.16576000      49.87314543
C       47.75613557      50.85961177      50.97877458
C       46.35773396      51.03628640      51.03994211
C       45.46743784      50.52170482      50.10785304
C       45.98804400      49.84219615      49.06204795
C       47.37501107      49.61867320      48.94156783
C       51.71493895      50.13673996      50.33104858
C       52.18264089      49.21024466      49.29447454
C       53.49645802      49.05627940      48.95439903
C       54.43369296      49.90660877      49.65151028
C       54.04054842      50.86993967      50.55525649
C       52.63271433      51.00593728      50.93271636
H       48.38443145      51.48775405      51.68532859
H       45.87240210      51.70753718      51.78842869
H       44.38229304      50.58872161      50.34496291
H       45.24274346      49.37633284      48.37531063
H       47.91153815      48.93912341      48.21027323
H       51.34972380      48.62446727      48.86421187
H       53.74291929      48.22160427      48.25361382
H       55.43488788      49.68865673      49.63601763
H       54.68179374      51.59057400      51.02296453
H       52.41180573      51.76551195      51.68017658
