24
Lattice="100.0 0.0 0.0 0.0 100.0 0.0 0.0 0.0 100.0" Properties=species:S:1:pos:R:3 Energy=-358639.59375 Energy_pyscf=-358636.2520071054 Energy_nn=-358642.625 pbc="F F F"
N       50.54006640      50.25193818      50.72617590
N       49.70983484      49.63724667      50.05528249
C       48.30471433      49.91691242      50.12532740
C       47.57939472      51.10098035      50.40622247
C       46.07670757      51.17328810      50.28651403
C       45.38074305      49.96074392      49.98559476
C       46.04019996      48.83209664      49.67094145
C       47.55002779      48.73631714      49.64766616
C       51.96078060      50.03607290      50.40241780
C       52.29561855      49.78809684      48.96412738
C       53.57367628      49.50489564      48.61515902
C       54.63892474      49.33220922      49.60319319
C       54.12121125      49.38622879      51.00338903
C       52.93158762      49.98056938      51.39367190
H       48.07191740      52.04909360      50.76629063
H       45.43994406      52.20572610      50.26777785
H       44.36923192      50.17086488      49.54286061
H       45.61156040      47.87509029      49.42051803
H       47.99746577      47.74737837      49.34236102
H       51.47732930      49.83602238      48.37000964
H       53.84218311      49.41037985      47.62169208
H       55.62525757      49.11508129      49.52129114
H       54.76811670      49.43964062      51.86526651
H       52.68926628      50.19390001      52.44742779
