24
Lattice="100.0 0.0 0.0 0.0 100.0 0.0 0.0 0.0 100.0" Properties=species:S:1:pos:R:3 Energy=-358663.28125 Energy_pyscf=-358659.68791137595 Energy_nn=-358662.71875 pbc="F F F"
N       50.43585874      50.22963216      50.35439700
N       49.63469257      49.26615357      50.12726125
C       48.19739605      49.59663416      50.12298564
C       47.80347092      50.78334124      50.78928933
C       46.32690500      50.97619230      51.04110898
C       45.52651712      50.24199823      50.23954592
C       45.98253594      49.22155611      49.31147297
C       47.31246456      48.91282500      49.27693218
C       51.73475046      49.93225044      50.14249524
C       52.22118764      49.22878932      49.05850969
C       53.57126653      49.08060060      48.96301807
C       54.50235360      49.45454323      49.96178673
C       54.04897926      50.07173293      51.11138135
C       52.65599785      50.32510252      51.17580399
H       48.50286451      51.16234370      51.42949756
H       45.95900489      51.80983236      51.71006428
H       44.41312442      50.49854593      50.06030662
H       45.29224557      48.68555649      48.73411025
H       47.64757567      48.09988398      48.51676113
H       51.57570971      48.71590826      48.37903392
H       54.04651265      48.72528072      48.02598799
H       55.58801511      49.58937534      49.90140389
H       54.75544064      50.45993977      51.83465632
H       52.17652976      51.08389452      51.79564995
