24
Lattice="100.0 0.0 0.0 0.0 100.0 0.0 0.0 0.0 100.0" Properties=species:S:1:pos:R:3 Energy=-358647.1875 Energy_pyscf=-358628.4721978808 Energy_nn=-358646.75 pbc="F F F"
N       50.30189054      49.46122888      49.83918391
N       49.62685777      50.23345771      50.60524497
C       48.11432756      50.41911460      50.36487043
C       47.29208818      51.09551702      51.23018029
C       45.89365967      50.89596037      51.03656021
C       45.44928056      50.33876508      49.85688333
C       46.32987286      49.90476061      48.75817552
C       47.65051458      49.93060940      49.04870327
C       51.65533478      49.80491384      49.77414174
C       52.45631490      48.72963888      49.19990036
C       53.84172896      48.84055032      49.26544177
C       54.69526550      49.85062819      49.91965488
C       53.91330047      50.99472236      50.30366403
C       52.40528066      50.92012295      50.41107989
H       47.82504816      51.68242694      52.02662554
H       45.20870440      51.07667033      51.99821722
H       44.32020726      50.07765182      49.63376191
H       45.87784805      49.20326094      47.92040737
H       48.36420250      49.41145777      48.39725784
H       51.78606140      48.30136753      48.43913878
H       54.28560830      47.89017373      48.92399575
H       55.68901295      49.98770148      49.60012762
H       54.41967347      51.99606286      50.42791084
H       51.89555150      51.75034127      50.82467120
