24
Lattice="100.0 0.0 0.0 0.0 100.0 0.0 0.0 0.0 100.0" Properties=species:S:1:pos:R:3 Energy=-358641.90625 Energy_pyscf=-358635.8384496682 Energy_nn=-358644.25 pbc="F F F"
N       50.55681001      50.24898941      50.27405776
N       49.75501173      49.32682596      50.08439832
C       48.43203323      49.63150154      50.33972091
C       47.83905997      50.49507131      51.16244618
C       46.40792483      50.82251403      50.87872294
C       45.59999532      50.15301536      50.04725563
C       46.18503430      49.22864349      49.17543551
C       47.59543861      49.08029810      49.26729193
C       51.89422451      49.77332848      50.22072333
C       52.26498765      49.04953068      49.14243261
C       53.62418757      48.78397858      48.93752651
C       54.53184309      49.42290164      49.85919793
C       54.14996320      50.24513005      50.93813742
C       52.83333535      50.40199189      51.02647084
H       48.45918884      50.80481211      52.05226949
H       45.95001194      51.65790009      51.55505560
H       44.59073406      50.24144954      49.97397773
H       45.64752233      48.61392148      48.45175112
H       48.01170519      48.46030458      48.45360555
H       51.48431002      48.70730987      48.47681217
H       54.21545178      48.50288091      47.93146092
H       55.37186261      48.90385962      49.77735171
H       54.79511119      50.70637923      51.66530881
H       52.35022854      51.01346495      51.79768349
