24
Lattice="100.0 0.0 0.0 0.0 100.0 0.0 0.0 0.0 100.0" Properties=species:S:1:pos:R:3 Energy=-358676.71875 Energy_pyscf=-358675.0121378672 Energy_nn=-358676.78125 pbc="F F F"
N       50.33925595      49.66174116      49.86906675
N       49.59511511      50.52721215      50.44461245
C       48.16828053      50.43497281      50.17806216
C       47.29426654      50.92295514      51.18374952
C       45.89843151      50.85301134      51.04753251
C       45.39016730      50.27132004      49.83590712
C       46.32538224      49.80802237      48.91981944
C       47.67852057      49.74904857      49.11385065
C       51.69490101      49.85748567      49.79109807
C       52.44061115      48.74483778      49.30733457
C       53.84537712      48.83902629      49.31798671
C       54.57836985      49.97387638      49.76006028
C       53.83533342      51.01229579      50.22120321
C       52.44737185      50.95437149      50.40415306
H       47.74053435      51.44306098      52.01651742
H       45.33983579      51.19878677      51.97750943
H       44.36798707      50.18066242      49.57334063
H       45.78150868      49.41681626      48.01297402
H       48.37542902      49.40025996      48.35521145
H       51.85692678      48.08234890      48.56048482
H       54.29950931      48.00339965      48.80104026
H       55.66055711      49.91299188      49.74013753
H       54.39506820      51.88802352      50.41847142
H       51.91461750      51.71443402      50.95965000
