24
Lattice="100.0 0.0 0.0 0.0 100.0 0.0 0.0 0.0 100.0" Properties=species:S:1:pos:R:3 Energy=-358674.0625 Energy_pyscf=-358674.3456555202 Energy_nn=-358674.125 pbc="F F F"
N       50.41734417      50.20473664      50.43441782
N       49.63132719      49.38413764      49.90549838
C       48.20181932      49.71913918      50.01954727
C       47.78477726      50.85123483      50.81593087
C       46.44047422      50.98960984      51.00776737
C       45.48596366      50.17413430      50.28984320
C       45.95513674      49.18873405      49.39752714
C       47.34769421      48.86735025      49.38202215
C       51.82457382      49.88649344      50.15091124
C       52.32702457      49.34473630      48.97996447
C       53.72196434      48.94309932      48.89263970
C       54.52258973      49.49001975      49.89980619
C       54.05835123      50.03941662      51.12247766
C       52.71295220      50.23697121      51.22991795
H       48.50398930      51.61424945      51.04857711
H       46.11915926      51.77439621      51.76804092
H       44.43860399      50.50170199      50.32585498
H       45.17997417      48.76505820      48.70350529
H       47.92723086      48.21488965      48.66250762
H       51.68700083      49.06236250      48.19629436
H       54.15453834      48.68786097      47.93637467
H       55.56328821      49.24009572      49.96780202
H       54.84894804      50.38757840      51.83345808
H       52.33137510      50.80905315      52.17766232
