24
Lattice="100.0 0.0 0.0 0.0 100.0 0.0 0.0 0.0 100.0" Properties=species:S:1:pos:R:3 Energy=-358682.6875 Energy_pyscf=-358684.56037750037 Energy_nn=-358683.03125 pbc="F F F"
N       50.44270248      50.20555296      50.47828833
N       49.64939348      49.39932328      49.90397511
C       48.31141637      49.65492821      50.04870032
C       47.83395515      50.76372749      50.84142114
C       46.47538558      50.95860720      50.98741377
C       45.50022002      50.18226036      50.23546299
C       45.96504537      49.23989135      49.41037169
C       47.33430589      48.89962375      49.32320594
C       51.82625557      49.84366253      50.19385145
C       52.33583982      49.29550040      49.00490128
C       53.69191885      49.09291359      48.91382583
C       54.51479902      49.47940850      49.96324512
C       54.06018477      50.08803021      51.13124439
C       52.64039723      50.30466307      51.21137650
H       48.59199098      51.51423320      51.10080252
H       46.21001941      51.79961614      51.68392515
H       44.44856249      50.53881058      50.37128240
H       45.28862330      48.74818595      48.74255186
H       47.66229271      48.20300930      48.58297067
H       51.62247996      49.01098713      48.17812536
H       54.13456929      48.64440640      48.00800260
H       55.61123658      49.27692131      49.94855036
H       54.83147785      50.33933309      51.77499845
H       52.22617725      50.80495685      52.10586121
