24
Lattice="100.0 0.0 0.0 0.0 100.0 0.0 0.0 0.0 100.0" Properties=species:S:1:pos:R:3 Energy=-358651.0 Energy_pyscf=-358655.4128407982 Energy_nn=-358651.84375 pbc="F F F"
N       50.41027330      50.00940400      50.23359852
N       49.55602739      49.82029631      49.28967459
C       48.15309371      49.97243980      49.76033091
C       47.89178094      50.89856128      50.74806716
C       46.46659922      51.10647159      51.00973136
C       45.39921133      50.52900883      50.30698208
C       45.77016242      49.58936316      49.29895907
C       47.09188521      49.30511287      49.16523717
C       51.78135582      50.01281507      50.00431162
C       52.50462164      49.07048825      49.09418177
C       53.82449474      49.18168911      48.97263724
C       54.46174450      50.04890918      49.82516337
C       53.96056934      50.68430708      50.97980293
C       52.48903838      50.61551557      51.06161024
H       48.64777001      51.23771915      51.38563451
H       46.00933796      51.71442423      51.79192401
H       44.46622030      51.00652797      50.38077764
H       45.04494210      49.22328136      48.55297552
H       47.52755518      48.62733087      48.32704073
H       51.87386080      48.33579576      48.52956809
H       54.36697048      48.68434810      48.15362303
H       55.59738192      50.23046475      49.75841662
H       54.54265062      51.12120330      51.87127070
H       52.07019344      51.05933779      51.97467126
