24
Lattice="100.0 0.0 0.0 0.0 100.0 0.0 0.0 0.0 100.0" Properties=species:S:1:pos:R:3 Energy=-358657.78125 Energy_pyscf=-358656.27924050135 Energy_nn=-358657.25 pbc="F F F"
N       50.27703901      49.64567570      49.84820586
N       49.61853689      50.32386868      50.63752035
C       48.18200588      50.26863373      50.28369212
C       47.34838552      51.06784855      51.20519035
C       45.88120677      50.91479386      50.99606957
C       45.48919782      50.23235800      49.87812213
C       46.36369256      49.84836453      48.80836060
C       47.68325468      49.66001221      49.10605034
C       51.70740124      49.83642839      49.85073214
C       52.43683890      48.83073343      49.22726343
C       53.81770942      48.79796610      49.26967937
C       54.63574751      49.94753315      49.79558101
C       53.77057127      51.00231033      50.16514076
C       52.38457524      50.92598788      50.35287915
H       47.70388975      51.66771788      52.02328120
H       45.19370670      51.13113288      51.88588921
H       44.39020495      50.19003712      49.65217684
H       45.86733566      49.36022422      47.95369532
H       48.37667633      49.47196402      48.37785513
H       51.72803611      48.21036941      48.52863386
H       54.34981738      47.93865935      48.79797896
H       55.69685097      49.93686092      49.70296073
H       54.41595098      51.91045176      50.40159477
H       51.92808236      51.73592744      51.02201887
