24
Lattice="100.0 0.0 0.0 0.0 100.0 0.0 0.0 0.0 100.0" Properties=species:S:1:pos:R:3 Energy=-358677.6875 Energy_pyscf=-358681.0011798291 Energy_nn=-358677.9375 pbc="F F F"
N       50.47121079      50.24482118      50.38163827
N       49.63420271      49.40518581      49.87332913
C       48.28782778      49.73726437      50.03462114
C       47.80107929      50.80856174      50.83243993
C       46.43619020      50.93618729      51.01733327
C       45.41601973      50.16773579      50.25065978
C       45.91173653      49.18667925      49.40066894
C       47.35640913      48.93913636      49.41709898
C       51.83888232      49.83414311      50.18151425
C       52.37549231      49.28153728      48.99432035
C       53.71203333      49.06631261      48.90914988
C       54.53883686      49.47917005      49.92968151
C       54.04992386      50.01838253      51.13064494
C       52.66442435      50.26209283      51.29067489
H       48.56277253      51.56218280      51.14040867
H       46.15191105      51.77083378      51.72026904
H       44.44962323      50.52411645      50.32403372
H       45.18612301      48.78106658      48.68659042
H       47.78952763      48.22449414      48.65919113
H       51.72281632      48.99873155      48.19440510
H       54.15711936      48.65977699      47.99135559
H       55.61828215      49.24830933      49.89891790
H       54.83502292      50.35687952      51.77462098
H       52.19109455      50.85187856      52.11374751
