24
Lattice="100.0 0.0 0.0 0.0 100.0 0.0 0.0 0.0 100.0" Properties=species:S:1:pos:R:3 Energy=-358666.375 Energy_pyscf=-358661.11548563966 Energy_nn=-358666.84375 pbc="F F F"
N       50.31620951      49.52391869      49.78124634
N       49.56012512      50.29295725      50.46311413
C       48.20823504      50.45618426      50.16558628
C       47.27854087      51.03067415      51.21744374
C       45.93328036      50.87717167      51.09373266
C       45.42009747      50.29470133      49.89327709
C       46.25114528      49.82023470      48.88187948
C       47.61262195      49.78662515      49.08301496
C       51.74320741      49.81375838      49.97747556
C       52.46480940      48.84727772      49.26654700
C       53.92592952      48.83955063      49.23985267
C       54.63648417      49.91333005      49.87367904
C       53.80324664      50.99464804      50.19626817
C       52.40444187      50.94999747      50.35714170
H       47.78005510      51.58978265      52.01576857
H       45.19718902      51.21938895      52.02816908
H       44.37359050      50.18420378      49.55799813
H       45.77575082      49.32795917      47.99709139
H       48.35936260      49.43725650      48.34344109
H       51.92353140      48.11178852      48.53921788
H       54.41689016      47.95532775      48.78991586
H       55.67248572      49.96781321      49.64702942
H       54.36009162      51.92343152      50.49275708
H       51.86878417      51.68356071      50.92078851
