24
Lattice="100.0 0.0 0.0 0.0 100.0 0.0 0.0 0.0 100.0" Properties=species:S:1:pos:R:3 Energy=-358682.90625 Energy_pyscf=-358682.0245119422 Energy_nn=-358681.78125 pbc="F F F"
N       50.58042111      50.22640205      50.50073947
N       49.74496273      49.45121756      49.94352370
C       48.36089291      49.62362575      50.14469702
C       47.75372495      50.50419426      51.11172607
C       46.37537890      50.79969056      50.96230688
C       45.51258225      50.14032955      50.10373069
C       46.15953823      49.23800611      49.18855414
C       47.49416430      48.90041887      49.25990522
C       51.93312084      49.77411207      50.26213544
C       52.33815666      49.05998343      49.17212795
C       53.69146338      48.83041458      48.89854049
C       54.62013417      49.31961753      49.87538356
C       54.19204966      50.15298032      50.97631418
C       52.83734363      50.37969410      51.13964812
H       48.43631211      50.94003160      51.99454070
H       45.92298571      51.59666232      51.56204364
H       44.44554027      50.27373996      50.01626174
H       45.55090188      48.66002786      48.41112146
H       47.89801824      48.39150396      48.35528935
H       51.55531410      48.80047972      48.49786030
H       54.09814022      48.35955272      48.01011453
H       55.67630125      49.04213082      49.64127382
H       54.90720315      50.64975247      51.65956269
H       52.51631389      51.14968189      51.86107060
