24
Lattice="100.0 0.0 0.0 0.0 100.0 0.0 0.0 0.0 100.0" Properties=species:S:1:pos:R:3 Energy=-358647.375 Energy_pyscf=-358649.5631511725 Energy_nn=-358650.3125 pbc="F F F"
N       50.50680582      50.14605522      50.45510705
N       49.67909442      49.82832856      49.52696055
C       48.24203011      49.96981501      49.83534748
C       47.68490059      50.11478972      51.10742467
C       46.37157691      50.44081977      51.21081289
C       45.44973257      50.56491048      50.19822708
C       45.94854820      50.54569289      48.94284451
C       47.34893655      50.36582648      48.72693293
C       51.86115853      50.02895671      50.09772963
C       52.47233813      48.82368446      49.87732545
C       53.81006629      48.83022665      49.68949143
C       54.58435294      50.06447292      49.75474871
C       54.05667216      51.19909596      50.18878049
C       52.61666901      51.20467878      50.27693696
H       48.26186533      50.42483998      52.03933788
H       45.94438391      50.64055374      52.24162957
H       44.35481101      50.54817292      50.38480810
H       45.35220279      50.55731584      48.05100966
H       47.85647529      50.09559910      47.83077934
H       51.85442017      47.93016211      49.87196536
H       54.36434447      47.79323968      49.65553363
H       55.50731671      50.07071552      49.36860665
H       54.69658106      52.06366971      50.09068176
H       52.13163165      52.17911801      50.54598461
