24
Lattice="100.0 0.0 0.0 0.0 100.0 0.0 0.0 0.0 100.0" Properties=species:S:1:pos:R:3 Energy=-358684.28125 Energy_pyscf=-358684.70884120965 Energy_nn=-358683.34375 pbc="F F F"
N       50.43785868      50.25482070      50.43681932
N       49.66421138      49.39112785      49.89265111
C       48.23732627      49.58816782      50.05339592
C       47.76194015      50.69428235      50.88174111
C       46.38162648      51.02377691      50.97561680
C       45.51520978      50.24279398      50.13836714
C       45.99400594      49.21296852      49.31824285
C       47.33714907      48.92911606      49.25581458
C       51.77304119      49.90198499      50.17897783
C       52.21719875      49.16738842      49.10546953
C       53.60781363      49.04752956      48.95289284
C       54.51881326      49.47720397      49.93463771
C       54.03313430      50.06680320      51.06813480
C       52.64027184      50.39552073      51.15712788
H       48.40973856      51.21686131      51.54605002
H       46.04293051      51.83190917      51.70494494
H       44.38754499      50.45102337      50.10342619
H       45.29224180      48.60075538      48.69133757
H       47.75386502      48.14910102      48.54238125
H       51.38560050      48.76520239      48.52463305
H       53.99978567      48.61383783      48.03822864
H       55.56385055      49.60362649      49.77796973
H       54.67345293      50.47308959      51.83202856
H       52.30836315      51.03898456      51.93008482
