24
Lattice="100.0 0.0 0.0 0.0 100.0 0.0 0.0 0.0 100.0" Properties=species:S:1:pos:R:3 Energy=-358688.875 Energy_pyscf=-358688.34880972415 Energy_nn=-358687.59375 pbc="F F F"
N       50.46264627      50.23512919      50.48560862
N       49.65055065      49.46353073      49.91729678
C       48.26322800      49.73759889      49.99130959
C       47.80689120      50.83582167      50.83210322
C       46.45285135      50.96978046      50.99961996
C       45.46112893      50.18885384      50.26881671
C       45.95033674      49.21814304      49.34059625
C       47.31392107      48.93589973      49.34110959
C       51.83923964      49.86171324      50.20943058
C       52.32676874      49.31993937      49.02847930
C       53.71048377      49.01251635      48.93008644
C       54.55398112      49.45457918      49.91688941
C       54.06036751      50.08128856      51.05042110
C       52.69489476      50.26950607      51.20822851
H       48.50649467      51.53516741      51.18766539
H       46.18379002      51.76578044      51.67026925
H       44.43358090      50.52602717      50.39400186
H       45.29179704      48.66656047      48.73563060
H       47.74762172      48.20498250      48.66726108
H       51.65498841      49.03228723      48.18475784
H       54.17951643      48.63478228      47.97021724
H       55.63942378      49.25871674      49.87487950
H       54.78177267      50.37424003      51.84597892
H       52.22014840      50.75871763      52.11428955
