24
Lattice="100.0 0.0 0.0 0.0 100.0 0.0 0.0 0.0 100.0" Properties=species:S:1:pos:R:3 Energy=-358652.71875 Energy_pyscf=-358652.1674572567 Energy_nn=-358654.09375 pbc="F F F"
N       50.45511218      49.82080821      49.81374751
N       49.65454833      49.58567504      50.78434520
C       48.26684190      49.73062250      50.39558644
C       47.56972093      50.80582265      50.99255301
C       46.28715919      50.96381885      50.63597615
C       45.60600061      50.10487350      49.81483115
C       46.27363892      49.11670276      49.16789979
C       47.69784826      49.06387990      49.40419077
C       51.80602352      49.47795125      50.08302711
C       52.36350023      48.85290981      48.95846144
C       53.76361790      48.82861578      48.85897223
C       54.44438862      49.48742014      49.84343966
C       53.89329838      50.29791022      50.90716458
C       52.53312888      50.22883050      51.09067298
H       48.00680613      51.38626443      51.72185186
H       45.83298790      51.91716684      51.03619130
H       44.49225973      50.21148329      49.75490687
H       45.79426894      48.43693419      48.49334792
H       48.27635916      48.22068423      48.95885880
H       51.71709892      48.54513274      48.15438544
H       54.49126582      48.68312835      48.01400767
H       55.52910675      49.34486345      49.85252353
H       54.41450358      50.93239475      51.49415492
H       52.03899569      50.77333458      51.95858615
