24
Lattice="100.0 0.0 0.0 0.0 100.0 0.0 0.0 0.0 100.0" Properties=species:S:1:pos:R:3 Energy=-358690.5625 Energy_pyscf=-358686.58444648446 Energy_nn=-358687.25 pbc="F F F"
N       50.39898629      50.17112296      50.55220555
N       49.61017239      49.46269781      49.85307171
C       48.22409636      49.74586356      50.02576421
C       47.67677993      50.84142977      50.76199996
C       46.29160659      51.04669422      50.79678172
C       45.44395518      50.16853879      50.07461729
C       45.96762864      49.01433795      49.48147011
C       47.31640910      48.91606669      49.32398492
C       51.77977112      49.79660434      50.31127860
C       52.14716617      49.26159009      49.04787721
C       53.56425091      49.25229588      48.76306804
C       54.55066495      49.63572876      49.74280178
C       54.08393821      50.11752206      51.01337969
C       52.76150372      50.07820722      51.26205432
H       48.27589954      51.51549276      51.38558819
H       45.81280803      51.93841050      51.26818728
H       44.35311358      50.36463319      50.15072903
H       45.29063339      48.30791932      48.97135559
H       47.89694099      48.14258598      48.70015046
H       51.44499116      48.98241086      48.33426548
H       53.85814576      48.83738673      47.82337972
H       55.60602236      49.76705071      49.44722845
H       54.81054237      50.25133883      51.79907717
H       52.44581896      50.49028253      52.22811513
