24
Lattice="100.0 0.0 0.0 0.0 100.0 0.0 0.0 0.0 100.0" Properties=species:S:1:pos:R:3 Energy=-358644.8125 Energy_pyscf=-358644.66076444875 Energy_nn=-358644.8125 pbc="F F F"
N       50.52169807      50.33764657      50.66854872
N       49.66906981      49.68150110      49.97014269
C       48.24139298      49.85793795      50.28814803
C       47.59847131      51.07545612      50.43809074
C       46.18301421      51.13926507      50.26135318
C       45.49200535      50.04966435      49.85610933
C       46.11932702      48.78716783      49.72482974
C       47.48877898      48.82344774      49.76017656
C       51.90514000      50.04267604      50.40706869
C       52.28246824      49.93177534      48.95271338
C       53.56842468      49.40892562      48.64825510
C       54.51562301      49.25226703      49.62816137
C       54.09752152      49.52659241      50.92706292
C       52.78618511      49.83179139      51.37261703
H       48.17144540      52.04438598      50.72708796
H       45.55521917      51.98367148      50.26555533
H       44.55350739      50.22501408      49.54448068
H       45.72375219      47.72907287      49.58398211
H       48.06845269      48.00661877      49.29455470
H       51.37417218      49.87667438      48.30062472
H       53.89803876      49.44245196      47.63140323
H       55.55995450      49.10193094      49.54026049
H       54.69289314      49.37225417      51.91623563
H       52.53150473      50.12415730      52.35246249
