24
Lattice="100.0 0.0 0.0 0.0 100.0 0.0 0.0 0.0 100.0" Properties=species:S:1:pos:R:3 Energy=-358677.96875 Energy_pyscf=-358677.43260071333 Energy_nn=-358678.0 pbc="F F F"
N       50.36915098      50.29143673      50.49849198
N       49.57498098      49.50103286      49.90629792
C       48.19860949      49.66908156      50.10459837
C       47.70515326      50.70151993      50.88523748
C       46.35364280      50.99155337      51.02527468
C       45.46490673      50.24896952      50.14390609
C       45.96796644      49.15139247      49.27355247
C       47.35229055      48.97572376      49.25041245
C       51.76197945      49.87286400      50.17626367
C       52.26317958      49.12441529      49.09111642
C       53.60834932      48.98880486      48.98698732
C       54.51312504      49.53104185      49.84260878
C       53.98560179      50.10211436      51.03305445
C       52.63313086      50.40078630      51.13177287
H       48.47876152      51.14053996      51.62555245
H       46.09677805      51.83608164      51.69284278
H       44.37602439      50.43891883      50.11113466
H       45.22892705      48.63969360      48.66963727
H       47.79748405      48.18200681      48.60227944
H       51.62266981      48.64904167      48.38793585
H       54.05948387      48.63190482      48.07151289
H       55.59328670      49.57436841      49.89003268
H       54.70158121      50.45465310      51.77196593
H       52.22067016      51.06174715      51.88886376
