24
Lattice="100.0 0.0 0.0 0.0 100.0 0.0 0.0 0.0 100.0" Properties=species:S:1:pos:R:3 Energy=-358683.5 Energy_pyscf=-358683.78094901954 Energy_nn=-358683.3125 pbc="F F F"
N       50.46266898      50.06145113      50.51307104
N       49.63093003      49.31304478      49.89957796
C       48.24792934      49.70743664      50.08674448
C       47.75334453      50.70053407      50.92277319
C       46.38040478      50.97779801      51.01961147
C       45.49669211      50.29758466      50.11028395
C       45.94675892      49.23068302      49.27901949
C       47.32474065      48.99845962      49.20095992
C       51.78785184      49.87459816      50.24772710
C       52.20588473      49.19232167      49.04549010
C       53.61415163      49.05395364      48.94925569
C       54.51253523      49.46437465      49.96796638
C       54.02095522      50.16278481      51.10006179
C       52.69822653      50.41476942      51.14998249
H       48.47202827      51.16757054      51.60606266
H       46.00802330      51.82044844      51.67214457
H       44.38230263      50.41003811      50.14469647
H       45.26141211      48.63927400      48.64289935
H       47.57750513      48.12717194      48.56476663
H       51.50008155      48.71944842      48.39517738
H       54.03272407      48.63784203      48.06609836
H       55.68007327      49.56348067      49.82677134
H       54.73282543      50.50442499      51.80469828
H       52.21684375      51.16028753      51.81701739
