24
Lattice="100.0 0.0 0.0 0.0 100.0 0.0 0.0 0.0 100.0" Properties=species:S:1:pos:R:3 Energy=-358638.96875 Energy_pyscf=-358642.19810297305 Energy_nn=-358642.71875 pbc="F F F"
N       50.62715112      50.30389062      50.33126174
N       49.79389193      49.44565210      50.04690296
C       48.37522458      49.65893616      50.22670601
C       47.77809282      50.47038456      51.15920371
C       46.39050337      50.77669887      50.86591759
C       45.54441908      50.12271149      50.06438286
C       46.09360242      49.22693786      49.14563872
C       47.50383908      48.96669027      49.31643893
C       51.96895983      49.70226776      50.28507050
C       52.37538969      49.03958405      49.14400326
C       53.69102019      48.84270180      48.90837877
C       54.63539168      49.33635080      49.81157432
C       54.24674872      50.21159229      50.99485545
C       52.90909962      50.38712258      51.13739974
H       48.41374508      50.92726402      51.96124425
H       46.00581128      51.60361470      51.49593009
H       44.47614011      50.26665718      50.06042909
H       45.41949476      48.60467923      48.43059419
H       47.82574932      48.45250513      48.31219477
H       51.49121029      48.80595097      48.51269414
H       54.12156189      48.41070600      48.02810729
H       55.52529987      48.99321460      49.67352094
H       54.92885404      50.73240523      51.71886929
H       52.43315018      51.01088939      51.87309191
