24
Lattice="100.0 0.0 0.0 0.0 100.0 0.0 0.0 0.0 100.0" Properties=species:S:1:pos:R:3 Energy=-358666.09375 Energy_pyscf=-358670.2563358468 Energy_nn=-358666.65625 pbc="F F F"
N       50.24668798      49.65240347      49.81376467
N       49.54856383      50.34625662      50.59845891
C       48.17539251      50.40627772      50.21201608
C       47.33391300      51.04757233      51.14488909
C       45.93684238      50.94567821      51.09793514
C       45.46937093      50.25514266      49.91307662
C       46.29945598      49.79107835      48.90499873
C       47.67684158      49.72102755      49.11403289
C       51.67540085      49.80649750      49.94876378
C       52.42499221      48.81079455      49.23652979
C       53.92048189      48.84117119      49.28633407
C       54.55338713      49.93546918      49.73800683
C       53.74833159      50.99650123      50.16277436
C       52.37749320      50.92701189      50.34573328
H       47.73350317      51.51260377      52.02035908
H       45.31111934      51.19424238      51.96233682
H       44.40210755      50.15156021      49.55234802
H       45.87181376      49.38947353      47.97430555
H       48.43697036      49.47536539      48.36181253
H       51.90607496      48.07335483      48.53733726
H       54.37004336      48.06187884      48.82914089
H       55.66285963      49.87828615      49.71846509
H       54.35733783      51.89064758      50.46539218
H       51.86946170      51.71286964      50.94175821
