24
Lattice="100.0 0.0 0.0 0.0 100.0 0.0 0.0 0.0 100.0" Properties=species:S:1:pos:R:3 Energy=-358686.75 Energy_pyscf=-358678.8589971862 Energy_nn=-358680.625 pbc="F F F"
N       50.29078148      49.64877322      49.82841046
N       49.62104815      50.48950423      50.50062016
C       48.18544992      50.44879351      50.16031090
C       47.37636018      51.00989855      51.13269556
C       45.95065638      50.89826047      51.06886254
C       45.46443874      50.30433498      49.84927889
C       46.31733821      49.89692875      48.84439709
C       47.69736090      49.79103497      49.06874110
C       51.68103136      49.76797363      49.89984981
C       52.42927061      48.71310412      49.29180513
C       53.82116633      48.80854660      49.32459512
C       54.54715044      49.91039806      49.79270593
C       53.81403188      50.99930599      50.25050814
C       52.41783343      50.94747417      50.40105144
H       47.72767195      51.46824012      52.05754036
H       45.26280049      51.09149723      51.91101818
H       44.29498713      50.13274837      49.63886341
H       45.78628013      49.33373605      48.07162588
H       48.43068626      49.39836199      48.36118549
H       51.85771196      48.12124123      48.53330412
H       54.33411890      48.03593282      48.79366589
H       55.62047346      49.94268581      49.67586758
H       54.42841931      51.93637571      50.41696297
H       51.90706831      51.76745158      50.93379773
