24
Lattice="100.0 0.0 0.0 0.0 100.0 0.0 0.0 0.0 100.0" Properties=species:S:1:pos:R:3 Energy=-358665.625 Energy_pyscf=-358664.56821212836 Energy_nn=-358665.65625 pbc="F F F"
N       50.26639353      49.65281129      49.71316305
N       49.61302564      50.37023635      50.56642080
C       48.23065537      50.48350989      50.24019103
C       47.40022613      51.09811394      51.18055521
C       45.98474416      50.91796668      51.09127581
C       45.51481839      50.31493582      49.88038463
C       46.35958612      49.82385437      48.88413393
C       47.74231646      49.80342868      49.13728228
C       51.63226703      49.72429486      49.87787257
C       52.45151511      48.77743903      49.27780124
C       53.90101961      48.90626846      49.26878279
C       54.53687967      49.92546424      49.81933668
C       53.66447377      50.95667658      50.18798501
C       52.30155665      50.90984972      50.30145227
H       47.73476240      51.54929230      52.03939163
H       45.37756162      51.13129443      51.99234848
H       44.44600987      50.14510308      49.52366220
H       45.92438722      49.36763158      47.98302536
H       48.40948893      49.40103844      48.41897151
H       51.93686771      48.09268007      48.49545611
H       54.31691228      48.02059110      48.83248745
H       55.62116102      49.88311935      49.74670385
H       54.18841038      51.88792307      50.40645700
H       51.70945353      51.68817425      50.93097593
