24
Lattice="100.0 0.0 0.0 0.0 100.0 0.0 0.0 0.0 100.0" Properties=species:S:1:pos:R:3 Energy=-358676.25 Energy_pyscf=-358670.7807930693 Energy_nn=-358676.96875 pbc="F F F"
N       50.29651631      49.71603623      49.64959496
N       49.61830426      50.26262410      50.58981198
C       48.28605979      50.40847081      50.20557653
C       47.33650381      51.01375197      51.14581606
C       45.96952973      50.85357713      50.99029199
C       45.43798810      50.32055386      49.85306354
C       46.30602428      49.87686282      48.86825024
C       47.71442601      49.82918493      49.09143027
C       51.75458673      49.77152534      49.85997927
C       52.40950183      48.70080434      49.32185598
C       53.84865986      48.80967233      49.30412108
C       54.57617048      49.94085629      49.84020829
C       53.82525846      51.00756946      50.28023203
C       52.39995615      50.91756079      50.44121761
H       47.74346160      51.54297676      52.04717788
H       45.38330852      51.10926327      51.97102596
H       44.36277921      50.17767816      49.64825537
H       45.79662574      49.37854241      48.05281719
H       48.26111939      49.43433083      48.31310885
H       51.83063713      48.13631545      48.58321105
H       54.35266016      47.99927350      48.82420118
H       55.69345514      49.94758160      49.72044863
H       54.36535751      51.98731291      50.36679882
H       51.69431470      51.72715829      50.83746892
