24
Lattice="100.0 0.0 0.0 0.0 100.0 0.0 0.0 0.0 100.0" Properties=species:S:1:pos:R:3 Energy=-358638.875 Energy_pyscf=-358642.0212389303 Energy_nn=-358642.09375 pbc="F F F"
N       50.55737553      50.22242028      50.35562295
N       49.73689191      49.34601186      49.92457425
C       48.37745016      49.69069390      50.29753044
C       47.86165038      50.58714111      51.16581222
C       46.39811345      50.68377713      51.00551189
C       45.61507004      50.11155453      50.03579766
C       46.23381548      49.26524066      49.15759918
C       47.57665499      49.13629434      49.20355123
C       51.84569733      49.89687435      50.19906639
C       52.28347774      49.03906555      49.14775893
C       53.60531427      48.72329029      48.94689290
C       54.64349764      49.40990429      49.86556971
C       54.15913252      50.17793496      50.96330984
C       52.77893876      50.37623855      51.08575556
H       48.44902927      51.09674648      51.95986686
H       45.87807708      51.48479723      51.53104268
H       44.48140552      50.28294022      50.07996520
H       45.79846640      48.63278304      48.51269218
H       48.05678381      48.44694922      48.32124645
H       51.46450889      48.56991417      48.60253131
H       54.00860875      48.50508816      48.03788195
H       55.62912919      49.00996059      49.63251211
H       54.86493462      50.61627077      51.70404194
H       52.30504836      50.99085249      51.78190640
