24
Lattice="100.0 0.0 0.0 0.0 100.0 0.0 0.0 0.0 100.0" Properties=species:S:1:pos:R:3 Energy=-358683.5 Energy_pyscf=-358683.1090060072 Energy_nn=-358682.8125 pbc="F F F"
N       50.46982162      50.06750176      50.55888109
N       49.67746279      49.30398211      49.97666144
C       48.25069690      49.63340206      50.09482602
C       47.73011588      50.67278637      50.89320147
C       46.41429550      50.97198781      50.97538341
C       45.47441654      50.23827174      50.12856685
C       45.95316638      49.23265092      49.33221774
C       47.34929807      49.02055403      49.23511106
C       51.80268423      49.87702185      50.20839304
C       52.21948294      49.17747001      49.09300223
C       53.63957608      49.07303299      48.92183187
C       54.54424935      49.45999595      49.98287336
C       54.02270237      50.12536417      51.05290342
C       52.69035886      50.41028945      51.16776184
H       48.39958191      51.19979997      51.54760544
H       46.01459363      51.80465544      51.65523426
H       44.37779701      50.41971739      50.10872416
H       45.29673403      48.68008800      48.66658116
H       47.64388401      48.16053128      48.55081534
H       51.46534813      48.81566123      48.42639813
H       54.00359166      48.59439343      48.07395094
H       55.58631458      49.52037848      49.73714369
H       54.73361425      50.53695648      51.82195452
H       52.17517242      51.13360854      51.83357900
