24
Lattice="100.0 0.0 0.0 0.0 100.0 0.0 0.0 0.0 100.0" Properties=species:S:1:pos:R:3 Energy=-358684.875 Energy_pyscf=-358686.27444908227 Energy_nn=-358683.28125 pbc="F F F"
N       50.38971277      50.27885861      50.43388507
N       49.60010048      49.39496335      49.95764710
C       48.20992761      49.62159544      50.11181076
C       47.70186086      50.71943979      50.90142869
C       46.37380605      51.01490034      50.97440996
C       45.47950390      50.27447400      50.15630234
C       45.99058403      49.25827403      49.32333090
C       47.34571669      48.92567655      49.27645140
C       51.75870493      49.88301810      50.18511226
C       52.21532843      49.16932226      49.08808943
C       53.65831090      49.04387914      48.98394401
C       54.56785985      49.45992256      49.92831352
C       54.07717741      50.10202784      51.05904227
C       52.68454455      50.36467250      51.15896090
H       48.45819816      51.15121084      51.56807814
H       46.04725225      51.80988452      51.68266788
H       44.34280376      50.38466160      50.05309595
H       45.31726495      48.60690405      48.69588377
H       47.66562938      48.17905150      48.55663995
H       51.48793608      48.74764750      48.35470426
H       54.03996990      48.63622021      48.08086425
H       55.61708958      49.58553891      49.83682992
H       54.70146789      50.50313303      51.79815115
H       52.23870984      51.05279533      51.89200711
