24
Lattice="100.0 0.0 0.0 0.0 100.0 0.0 0.0 0.0 100.0" Properties=species:S:1:pos:R:3 Energy=-358676.875 Energy_pyscf=-358679.23939605604 Energy_nn=-358677.84375 pbc="F F F"
N       50.38549876      50.22003922      50.50528606
N       49.58995373      49.42439522      49.94147992
C       48.21824727      49.60683256      50.14881493
C       47.69740261      50.67489846      50.90688961
C       46.30122755      51.00234385      51.00821355
C       45.49635249      50.28042101      50.13815143
C       45.98309263      49.23260452      49.27066269
C       47.31448424      48.95775408      49.22593709
C       51.78218287      49.85157146      50.22630431
C       52.20361910      49.22581066      49.05709244
C       53.60625204      49.05281747      48.92134301
C       54.52448135      49.48440901      49.95252352
C       54.00499032      50.08469995      51.07782330
C       52.68671546      50.38622322      51.13469679
H       48.45741635      51.16550507      51.55456070
H       45.99525305      51.86884751      51.71942258
H       44.39436037      50.41785646      50.11131898
H       45.29252827      48.62406738      48.67274403
H       47.66873078      48.16817016      48.53856599
H       51.59689886      48.66676360      48.42843022
H       54.09777616      48.65010470      48.08189412
H       55.61839749      49.56196491      49.82263894
H       54.75202492      50.48458628      51.73830987
H       52.21787297      51.10040606      51.85966904
