24
Lattice="100.0 0.0 0.0 0.0 100.0 0.0 0.0 0.0 100.0" Properties=species:S:1:pos:R:3 Energy=-358682.375 Energy_pyscf=-358677.9497030997 Energy_nn=-358681.21875 pbc="F F F"
N       50.34227311      50.16188698      50.35735462
N       49.51107605      49.35501277      49.81615313
C       48.20310112      49.64947533      50.08446574
C       47.77953338      50.59673577      51.03534561
C       46.40196928      50.97708612      51.06711832
C       45.55081718      50.28065911      50.16188929
C       45.97931041      49.22241969      49.24226637
C       47.30840448      48.86796283      49.22527740
C       51.73131057      50.00356903      50.20752983
C       52.24319388      49.22642922      49.06072580
C       53.63006453      49.06640985      48.96948800
C       54.52845405      49.51382684      49.96643938
C       53.99030575      50.09866809      51.10377452
C       52.64510066      50.46179827      51.13451966
H       48.61080476      51.13032232      51.46991317
H       46.03060884      51.85756866      51.67040207
H       44.37651677      50.50006971      50.13334832
H       45.23262175      48.64899268      48.66583796
H       47.67666508      48.12141663      48.53561765
H       51.57316828      48.62883398      48.50007519
H       53.97813395      48.64468432      48.07138744
H       55.64194113      49.55118739      49.83665362
H       54.76302931      50.46607257      51.79252720
H       52.21882710      51.10986304      51.90240836
