24
Lattice="100.0 0.0 0.0 0.0 100.0 0.0 0.0 0.0 100.0" Properties=species:S:1:pos:R:3 Energy=-358645.0 Energy_pyscf=-358651.64562166645 Energy_nn=-358647.59375 pbc="F F F"
N       50.43973822      50.16226393      50.28905548
N       49.59874528      49.37015340      49.84629635
C       48.26676290      49.73535032      50.11281386
C       47.84389545      50.83434111      50.76330911
C       46.51490027      51.02532124      50.92863984
C       45.44068448      50.22789025      50.28091932
C       45.87556643      49.28303011      49.43842461
C       47.24859426      48.95774820      49.46750597
C       51.84658067      49.77948470      50.18318982
C       52.43329244      49.37629498      48.94921874
C       53.70714038      49.12260476      48.89765064
C       54.48525756      49.49668854      49.96822075
C       54.03706458      50.00552532      51.19829258
C       52.59979788      50.17962590      51.25150850
H       48.66692042      51.48149567      51.15429837
H       46.05179012      51.68316340      51.72280190
H       44.47203030      50.48013990      50.29017028
H       45.25308165      48.74476682      48.66648449
H       47.83528645      48.15852731      48.80958308
H       51.74186774      49.07794876      48.13415086
H       54.17646623      48.66901569      47.97753348
H       55.53751295      49.19177664      49.95989541
H       54.86695087      50.51742411      51.73154236
H       52.22586201      50.77897198      52.09661216
