24
Lattice="100.0 0.0 0.0 0.0 100.0 0.0 0.0 0.0 100.0" Properties=species:S:1:pos:R:3 Energy=-358647.96875 Energy_pyscf=-358646.78357745 Energy_nn=-358649.09375 pbc="F F F"
N       50.26302808      49.38015842      49.89098314
N       49.47827654      50.32141940      50.17750323
C       48.11823730      50.29337824      50.15122350
C       47.52387621      51.23025435      51.02650863
C       46.13564646      51.11416610      51.07649191
C       45.31416437      50.21255519      50.42201190
C       45.97272894      49.55681519      49.23126152
C       47.35881305      49.61625421      49.08505855
C       51.68634268      49.80337393      49.84483011
C       52.51988219      48.95194050      48.98166984
C       53.99581928      48.99970535      49.28082221
C       54.58193719      49.91462323      50.12249024
C       53.72380717      50.72208587      50.86013551
C       52.35793713      50.63576570      50.71142976
H       48.04961899      51.62498941      51.86153220
H       45.48260430      51.72914845      51.86379276
H       44.25959197      49.97060091      50.71092667
H       45.31869323      48.94325559      48.66691801
H       47.75997941      49.08142433      48.19593098
H       52.05133441      48.30721939      48.14458057
H       54.59298989      48.44479581      48.60671985
H       55.62748845      50.16085128      50.18262707
H       54.32972018      51.46312612      51.51723966
H       51.62139518      51.02667973      51.49083020
