24
Lattice="100.0 0.0 0.0 0.0 100.0 0.0 0.0 0.0 100.0" Properties=species:S:1:pos:R:3 Energy=-358659.8125 Energy_pyscf=-358656.9406993644 Energy_nn=-358661.40625 pbc="F F F"
N       50.37366749      50.34080939      50.36656590
N       49.59131985      49.41599177      49.88355720
C       48.15567021      49.59947941      50.12272984
C       47.72009205      50.65737006      50.99388434
C       46.31255750      51.04245685      50.99680750
C       45.43890297      50.22225790      50.09333936
C       45.81760937      49.21202070      49.28784138
C       47.19834829      48.90067975      49.30452444
C       51.77067041      49.99651243      50.03138511
C       52.26164395      49.24520611      48.93890956
C       53.64835869      49.00705040      49.02551768
C       54.57355404      49.55639539      49.94905173
C       54.06398290      50.22665290      51.05331676
C       52.67944296      50.40763653      51.12980632
H       48.55878341      51.14258446      51.59652484
H       46.02101899      51.86298091      51.69053673
H       44.37495959      50.53252650      50.17456362
H       45.11235553      48.65125438      48.63919775
H       47.68392124      48.06399560      48.63753486
H       51.73766728      48.59843003      48.38825206
H       54.22245669      48.64659303      48.14032763
H       55.65674679      49.58207236      49.86321657
H       54.86797456      50.36079176      51.87151093
H       52.08346331      50.90704290      51.87888700
