24
Lattice="100.0 0.0 0.0 0.0 100.0 0.0 0.0 0.0 100.0" Properties=species:S:1:pos:R:3 Energy=-358690.78125 Energy_pyscf=-358687.135386992 Energy_nn=-358684.96875 pbc="F F F"
N       50.45347243      50.16366772      50.50450000
N       49.65148202      49.35816740      49.92805497
C       48.21230295      49.59884664      50.09606482
C       47.70304359      50.67307771      50.89874208
C       46.35871631      51.01595527      50.98329934
C       45.47227522      50.24540880      50.14126568
C       45.99277332      49.20968293      49.30972117
C       47.33319623      48.97032882      49.25683909
C       51.78577722      49.88389829      50.19983711
C       52.22276160      49.17788123      49.09983234
C       53.63700723      49.08140407      48.95530011
C       54.55012109      49.47880851      49.92871430
C       54.07444603      50.08873083      51.06883112
C       52.70761143      50.37752579      51.17473463
H       48.38450313      51.22351468      51.57867793
H       46.03372962      51.80104612      51.67342924
H       44.33713460      50.42022618      50.09458680
H       45.30710311      48.64911754      48.68452502
H       47.68281586      48.16344183      48.54706354
H       51.43751779      48.77747326      48.45613629
H       53.99719970      48.58717548      48.02475905
H       55.60456016      49.56629113      49.82363655
H       54.71108226      50.51170553      51.80348838
H       52.26386208      51.09257863      51.85659056
