24
Lattice="100.0 0.0 0.0 0.0 100.0 0.0 0.0 0.0 100.0" Properties=species:S:1:pos:R:3 Energy=-358683.21875 Energy_pyscf=-358680.71774084895 Energy_nn=-358683.09375 pbc="F F F"
N       50.27061340      49.63618934      49.80682768
N       49.57199144      50.40845868      50.53773135
C       48.16256458      50.41858296      50.21546965
C       47.28216844      51.01389610      51.18956048
C       45.90172199      50.90628278      51.08729741
C       45.42774989      50.25440023      49.86944790
C       46.28689936      49.83932704      48.87494925
C       47.65823643      49.75624724      49.12369123
C       51.69286368      49.81036133      49.83269734
C       52.40834854      48.74320471      49.24139991
C       53.84651118      48.84318555      49.26653327
C       54.58210524      49.97029269      49.78084802
C       53.81551429      51.03562065      50.17909270
C       52.42827619      50.94644951      50.36970517
H       47.74052377      51.46466017      52.03085871
H       45.26636803      51.16881065      51.93509926
H       44.37436358      50.18338260      49.60594315
H       45.83887494      49.38316118      47.99366748
H       48.43126785      49.43822296      48.37754402
H       51.97014724      48.01850039      48.55162383
H       54.35600490      47.97693581      48.79760302
H       55.73944244      49.87737908      49.71406907
H       54.37265631      51.92992977      50.47790535
H       51.88917388      51.79920155      50.96910118
