24
Lattice="100.0 0.0 0.0 0.0 100.0 0.0 0.0 0.0 100.0" Properties=species:S:1:pos:R:3 Energy=-358660.875 Energy_pyscf=-358657.0206170803 Energy_nn=-358659.21875 pbc="F F F"
N       50.50917011      50.27966038      50.42204252
N       49.67083447      49.45644180      49.89572216
C       48.27496569      49.63490967      50.10930589
C       47.75586403      50.68853591      50.95406885
C       46.29389245      50.97291827      51.03079574
C       45.44794910      50.25574873      50.18636290
C       45.98542264      49.20112088      49.27908643
C       47.28991870      48.89433625      49.30608202
C       51.79442755      49.92990362      50.18610854
C       52.21768172      49.25037119      48.95940658
C       53.58806074      49.06614467      48.88015368
C       54.46645077      49.41258933      49.90886292
C       54.03559475      50.05260405      51.18054388
C       52.65022469      50.30598660      51.27005015
H       48.52351336      51.19559358      51.42219874
H       45.92325125      51.84201333      51.64554107
H       44.35765540      50.40516056      50.08363745
H       45.31908630      48.66115470      48.63102353
H       47.71608042      48.14187407      48.65095707
H       51.46321744      48.73696540      48.39950312
H       53.93553672      48.55470111      48.10098677
H       55.64028684      49.63084309      49.84721620
H       54.83751190      50.55745963      51.76732331
H       52.22690530      51.01252802      51.94213191
