24
Lattice="100.0 0.0 0.0 0.0 100.0 0.0 0.0 0.0 100.0" Properties=species:S:1:pos:R:3 Energy=-358660.625 Energy_pyscf=-358656.55769343313 Energy_nn=-358661.6875 pbc="F F F"
N       50.21596845      49.63197037      49.73985529
N       49.57146029      50.34798616      50.49535078
C       48.16953729      50.35003731      50.22505602
C       47.29927363      51.00555138      51.11992247
C       45.93132494      50.80864731      51.02861127
C       45.41794986      50.26330072      49.84064671
C       46.30190609      49.93561346      48.86990709
C       47.62238056      49.77994004      49.13247166
C       51.71526804      49.77437250      49.95130554
C       52.40360722      48.73324917      49.29490823
C       53.80734066      48.87926732      49.25810461
C       54.57297526      49.95684848      49.84229907
C       53.79259407      51.02338713      50.23389053
C       52.43548783      50.95241908      50.45478773
H       47.67955351      51.58189127      52.00362202
H       45.48713937      51.13060786      51.90216229
H       44.41493853      50.18465726      49.67349723
H       45.93521827      49.38027995      48.03582792
H       48.22726477      49.33288673      48.36561179
H       51.96482498      48.15113701      48.52207049
H       54.37252156      48.03952874      48.80314859
H       55.63456689      49.81729792      49.67438783
H       54.45138326      51.93344159      50.37488254
H       51.85697147      51.78652114      50.99502572
