24
Lattice="100.0 0.0 0.0 0.0 100.0 0.0 0.0 0.0 100.0" Properties=species:S:1:pos:R:3 Energy=-358649.125 Energy_pyscf=-358643.46094851644 Energy_nn=-358648.28125 pbc="F F F"
N       50.39833758      50.13829946      50.39898463
N       49.61854530      49.35230925      49.90493556
C       48.28376086      49.69643378      50.14223535
C       47.87362299      50.85796166      50.79843389
C       46.48336550      50.93149894      50.99306550
C       45.51182944      50.14898085      50.23257376
C       45.97463489      49.24263620      49.39230941
C       47.32481151      48.96062528      49.50518775
C       51.78568164      49.85875759      50.11722876
C       52.34745273      49.33659295      48.98906104
C       53.65611322      49.12237764      48.88323763
C       54.50122619      49.54972791      49.92060727
C       53.95594285      49.95769291      51.24028958
C       52.63098169      50.17633602      51.29018992
H       48.71841746      51.59061164      51.02562403
H       46.18797329      51.73398711      51.61453709
H       44.40758488      50.41849359      50.32191265
H       45.30108750      48.83455558      48.75733130
H       47.84463227      48.29733194      48.72618984
H       51.67890957      49.04310093      48.16532093
H       54.17542511      48.64754040      47.95484995
H       55.46400843      49.23189347      49.95179743
H       54.83842099      50.46056383      51.71942044
H       52.21936238      50.75971707      52.13518021
