24
Lattice="100.0 0.0 0.0 0.0 100.0 0.0 0.0 0.0 100.0" Properties=species:S:1:pos:R:3 Energy=-358664.625 Energy_pyscf=-358659.5074371 Energy_nn=-358664.15625 pbc="F F F"
N       50.18354849      49.44373604      49.75743045
N       49.45670193      50.01762622      50.63521085
C       48.12742457      49.88434360      50.54716789
C       47.39965168      50.89570202      51.14923371
C       46.05916648      51.14070153      51.07371292
C       45.43918632      50.28094784      50.11036045
C       45.98404165      49.12077196      49.50354411
C       47.40376495      48.93994585      49.68886217
C       51.66025554      49.54072864      50.02995976
C       52.46231930      48.97750670      49.03811434
C       53.81082015      49.04457691      49.16458001
C       54.41986058      49.60124564      50.25294916
C       53.58949488      50.34201816      51.09685266
C       52.22308052      50.28591872      51.01135136
H       48.03351309      51.39930245      51.85314641
H       45.49784821      51.97101799      51.45145284
H       44.33995790      50.55728355      49.85246424
H       45.28339898      48.63720316      48.86295948
H       47.75028817      47.96374002      49.36869457
H       52.05490785      48.39721071      48.10759926
H       54.42854299      48.87943782      48.23934932
H       55.48104019      49.63920993      50.11573664
H       54.04491407      50.80025999      52.03825250
H       51.72804244      50.78770818      51.78344503
