24
Lattice="100.0 0.0 0.0 0.0 100.0 0.0 0.0 0.0 100.0" Properties=species:S:1:pos:R:3 Energy=-358649.96875 Energy_pyscf=-358641.5793865484 Energy_nn=-358649.75 pbc="F F F"
N       50.40691322      50.25013615      50.24364780
N       49.48953522      49.42238262      50.05591850
C       48.20186627      49.78497878      50.03546187
C       47.51818085      50.79396309      50.71257831
C       46.19122638      51.09998295      50.60088235
C       45.36454495      50.18015699      49.90377631
C       45.92582642      49.05808662      49.21867217
C       47.37985754      48.90157398      49.27479390
C       51.82046066      49.63259719      50.15713227
C       52.26103940      49.27315235      48.82766576
C       53.66848251      49.19616954      48.60675798
C       54.61458380      49.35863072      49.60396020
C       54.04272118      49.94757589      50.74436027
C       52.70815300      50.11657794      51.08999134
H       48.19073448      51.22674103      51.42999252
H       45.75770982      52.01323302      50.75652111
H       44.25967895      50.57201970      49.92241582
H       45.51241117      48.18828506      48.65956374
H       47.90856490      47.91833317      48.87001385
H       51.67184446      48.96817948      47.98347673
H       53.95561223      48.65425350      47.73602496
H       55.69880298      49.43814153      49.43329279
H       54.62469939      50.32597674      51.59873701
H       52.54316485      50.58607174      52.08106813
