24
Lattice="100.0 0.0 0.0 0.0 100.0 0.0 0.0 0.0 100.0" Properties=species:S:1:pos:R:3 Energy=-358654.4375 Energy_pyscf=-358647.8440786492 Energy_nn=-358654.25 pbc="F F F"
N       50.35518156      49.44782975      49.65831914
N       49.57843883      50.03185623      50.51462005
C       48.20476598      50.02920367      50.31989562
C       47.50682770      51.24806553      50.42659952
C       46.09317519      51.22260990      50.44123103
C       45.36989338      50.03652830      50.00269880
C       46.18071737      48.92318301      49.68812524
C       47.56908627      48.79221912      49.96213981
C       51.81235665      49.65606046      49.94103614
C       52.50942227      49.31128215      48.80226564
C       53.81411684      49.41962111      48.78386897
C       54.60861036      49.51822055      49.94768676
C       54.04118473      49.82034092      51.12816408
C       52.59116294      49.90029477      51.12527608
H       48.18562231      52.05205965      50.71588039
H       45.49772656      51.97297628      50.91683415
H       44.33973385      49.94172331      50.06677559
H       45.61620618      48.04192445      49.35584622
H       48.12590180      47.91022312      49.49965991
H       52.13158777      48.81782469      47.91611214
H       54.34870587      49.18375188      47.88167820
H       55.60332898      49.48723843      50.01211289
H       54.39544343      49.97218959      52.18731757
H       52.14916111      50.08823238      52.07778291
