24
Lattice="100.0 0.0 0.0 0.0 100.0 0.0 0.0 0.0 100.0" Properties=species:S:1:pos:R:3 Energy=-358646.59375 Energy_pyscf=-358639.865631102 Energy_nn=-358645.375 pbc="F F F"
N       50.47578097      50.41420350      50.67344550
N       49.61339440      49.74293406      50.01574838
C       48.24008103      49.89082746      50.25992561
C       47.58020243      51.11631246      50.37348602
C       46.16204855      51.17625714      50.33508857
C       45.39772728      50.06235870      49.86937257
C       46.04246308      48.77787985      49.66081156
C       47.49564923      48.82355735      49.67360007
C       51.95042807      50.03971061      50.35041328
C       52.30052766      49.77113121      48.98368162
C       53.59588989      49.31406330      48.72529743
C       54.53909539      49.17068300      49.70098440
C       54.09334434      49.48865644      50.94391001
C       52.89308345      49.96707203      51.35555324
H       47.99624647      52.04074695      50.84612089
H       45.46956320      52.01966263      50.25775969
H       44.40943978      50.20397366      49.54536042
H       45.63994732      47.69732978      49.52960524
H       48.05539644      47.95797976      49.25649859
H       51.54180851      49.82370724      48.32159177
H       54.00633203      49.46552518      47.68221476
H       55.54785249      49.18452909      49.46000425
H       54.73761058      49.40542676      51.78444792
H       52.81328792      50.11467652      52.47020417
