24
Lattice="100.0 0.0 0.0 0.0 100.0 0.0 0.0 0.0 100.0" Properties=species:S:1:pos:R:3 Energy=-358673.125 Energy_pyscf=-358671.70650312735 Energy_nn=-358672.75 pbc="F F F"
N       50.22727106      49.70196038      49.77874847
N       49.50707534      50.33201211      50.60492437
C       48.14276799      50.42018464      50.21331729
C       47.30700599      51.03650451      51.17624009
C       45.91610455      50.92635672      51.10100423
C       45.44212961      50.27434343      49.91229454
C       46.27272278      49.82180225      48.87680081
C       47.65068013      49.73061876      49.08242010
C       51.66255505      49.82312448      49.92434866
C       52.43407986      48.76018925      49.26834413
C       53.91544997      48.85147123      49.26271490
C       54.54914967      49.94422009      49.73073028
C       53.75141624      50.99755411      50.17528889
C       52.36218017      50.93929394      50.33142260
H       47.78486931      51.49429250      52.00188544
H       45.31808360      51.20257768      51.96817493
H       44.40114322      50.17665279      49.58118349
H       45.89418778      49.37790396      47.98155167
H       48.42290137      49.45570648      48.34944212
H       51.99284709      47.99107401      48.51895741
H       54.39199752      48.05887650      48.81120835
H       55.68361548      49.89304282      49.73234991
H       54.38372083      51.90983007      50.48784861
H       51.86148409      51.73369706      50.91784649
