24
Lattice="100.0 0.0 0.0 0.0 100.0 0.0 0.0 0.0 100.0" Properties=species:S:1:pos:R:3 Energy=-358665.1875 Energy_pyscf=-358660.8255414564 Energy_nn=-358665.28125 pbc="F F F"
N       50.24210103      49.69186280      49.77834702
N       49.63553265      50.82802054      50.03862185
C       48.23170475      50.61836909      50.07933290
C       47.43492795      51.22093914      51.04367463
C       46.08372504      50.75839481      50.99459419
C       45.53796556      49.92174010      49.96644502
C       46.41448149      49.44353315      49.00237536
C       47.78853634      49.87285299      49.02038808
C       51.72336402      49.76020873      49.72509234
C       52.44593561      48.83164391      48.99756362
C       53.88657526      48.70554953      49.13716108
C       54.55100223      49.61197108      49.93980670
C       53.83226487      50.71739536      50.49955769
C       52.52335117      50.70041774      50.49514808
H       47.86513884      51.86161801      51.68627825
H       45.41065822      51.31405191      51.61645246
H       44.51714398      49.47573231      49.93540919
H       46.19247290      48.69931464      48.23605321
H       48.46522062      49.59793097      48.19599706
H       52.05906712      48.01010740      48.27820082
H       54.32704107      47.98981817      48.45446338
H       55.65411237      49.65302145      49.79294012
H       54.33326774      51.45099393      51.17954483
H       51.98476936      51.61796643      50.80322570
