24
Lattice="100.0 0.0 0.0 0.0 100.0 0.0 0.0 0.0 100.0" Properties=species:S:1:pos:R:3 Energy=-358684.9375 Energy_pyscf=-358682.2036805362 Energy_nn=-358683.5625 pbc="F F F"
N       50.45383092      50.08319150      50.54571180
N       49.65443889      49.28932994      49.99485817
C       48.26776141      49.68594155      50.07642497
C       47.79144113      50.70673219      50.91280685
C       46.41368618      50.94674613      50.99510128
C       45.52064005      50.27520724      50.16261040
C       45.97307213      49.23532792      49.25204494
C       47.34936563      49.04784585      49.19427312
C       51.78658713      49.87159572      50.26066693
C       52.22869734      49.23600222      49.08543049
C       53.59319046      49.03465083      48.88972934
C       54.52902142      49.50186319      49.98047622
C       53.96756667      50.13772560      51.05352013
C       52.63650381      50.43253473      51.18827862
H       48.46543142      51.18406859      51.58648961
H       46.01674652      51.79955679      51.58408225
H       44.42640056      50.38003493      50.15696271
H       45.20184363      48.67875498      48.64461616
H       47.63882472      48.11461504      48.57878317
H       51.45496555      48.71939084      48.43507019
H       54.02809321      48.62443994      47.99645530
H       55.63580600      49.50883904      49.80941603
H       54.71905584      50.56692396      51.80553919
H       52.18338518      51.12236944      51.85919814
