24
Lattice="100.0 0.0 0.0 0.0 100.0 0.0 0.0 0.0 100.0" Properties=species:S:1:pos:R:3 Energy=-358651.6875 Energy_pyscf=-358659.7518042187 Energy_nn=-358653.0 pbc="F F F"
N       50.44553617      50.21257770      50.41291446
N       49.69102675      49.29297513      50.02837906
C       48.23505697      49.57560799      50.12713307
C       47.70284971      50.68827500      50.91706148
C       46.36565331      50.96539187      50.94672512
C       45.41569139      50.28829504      50.14948681
C       45.91207049      49.20999157      49.36449211
C       47.35334716      48.98443168      49.22025986
C       51.79305601      49.88015822      50.19675601
C       52.15978077      49.21454819      49.04860193
C       53.65366329      49.03360419      48.94098909
C       54.53308769      49.51050913      49.90714327
C       54.08912363      50.09645136      51.14893390
C       52.78778245      50.37486322      51.13858090
H       48.43530911      51.19830152      51.66555641
H       46.01250682      51.79405409      51.54972704
H       44.29173608      50.42100263      50.14301261
H       45.36405780      48.71433193      48.68245721
H       47.55754502      48.12167041      48.51159235
H       51.39657736      48.73858156      48.48623181
H       54.08355970      48.66819718      48.00889909
H       55.69178322      49.53698166      49.83594951
H       54.75060827      50.45919282      51.89046623
H       52.22028071      51.16691376      51.76166853
