24
Lattice="100.0 0.0 0.0 0.0 100.0 0.0 0.0 0.0 100.0" Properties=species:S:1:pos:R:3 Energy=-358653.21875 Energy_pyscf=-358653.7082749588 Energy_nn=-358654.0 pbc="F F F"
N       50.48030317      50.22087817      50.67977832
N       49.66080293      49.58384177      49.97114987
C       48.25448308      49.85267035      50.17232461
C       47.61379675      51.05947027      50.49931629
C       46.10188339      51.15200039      50.32399702
C       45.38133574      50.05230520      50.03021175
C       46.03170824      48.82975693      49.73758654
C       47.52998914      48.73150073      49.61845942
C       51.86861265      50.02489854      50.36805728
C       52.25591230      49.69703219      48.96200772
C       53.60797706      49.44547872      48.65952648
C       54.59821935      49.30974583      49.65464287
C       54.12424228      49.61663997      50.95911813
C       52.85085064      50.08217683      51.34237338
H       48.15995404      52.02144797      50.86423318
H       45.51870317      52.16664266      50.26641674
H       44.40499750      50.17398620      49.52819493
H       45.62724194      47.88066210      49.36715997
H       48.08322675      47.87022534      49.25491229
H       51.44797783      49.85455841      48.31581031
H       53.96581436      49.35694559      47.69655414
H       55.65446515      49.03931458      49.55605265
H       54.76173342      49.44861219      51.86816367
H       52.64662694      50.19404562      52.34426819
