24
Lattice="100.0 0.0 0.0 0.0 100.0 0.0 0.0 0.0 100.0" Properties=species:S:1:pos:R:3 Energy=-358649.15625 Energy_pyscf=-358648.07553212804 Energy_nn=-358649.03125 pbc="F F F"
N       50.57818036      50.58274977      50.43778476
N       49.75044569      49.85664091      49.90002550
C       48.33086662      50.00041734      50.04067943
C       47.65506218      50.19599458      51.24071724
C       46.12649246      50.34221575      51.24514726
C       45.43066708      50.31593370      50.01827852
C       46.20277230      50.07879537      48.80369883
C       47.46991224      49.79468667      48.86325675
C       51.88995755      50.20682803      50.07743283
C       52.20811569      48.82786318      49.80248701
C       53.61296888      48.63851764      49.49705676
C       54.61390006      49.52822831      49.73749628
C       54.32015968      50.81190430      50.21886306
C       52.92400558      51.12217945      50.34549716
H       48.22178630      50.35464204      52.15167712
H       45.61863949      50.52655042      52.18403088
H       44.35846995      50.49530734      49.93155988
H       45.66968661      50.27167795      47.78632980
H       48.14541688      49.69540304      47.97135529
H       51.43943025      48.29546340      49.45768888
H       53.88206474      47.86298911      48.81720460
H       55.60372477      49.23900123      49.49784855
H       55.14077662      51.58580791      50.52945563
H       52.87498927      52.09895055      50.97461145
