24
Lattice="100.0 0.0 0.0 0.0 100.0 0.0 0.0 0.0 100.0" Properties=species:S:1:pos:R:3 Energy=-358652.84375 Energy_pyscf=-358658.3904478712 Energy_nn=-358652.875 pbc="F F F"
N       50.32496864      49.37050139      49.74185130
N       49.61000819      50.27739722      50.32092347
C       48.16790572      50.06098828      50.36288581
C       47.48817272      51.22090347      50.53891046
C       46.10987998      51.16352064      50.50596030
C       45.41297081      49.91088371      50.02060107
C       46.23082155      48.79980050      49.71811235
C       47.62230689      48.81236650      49.96817277
C       51.73475057      49.65410004      49.90706959
C       52.61113893      49.39884723      48.78336185
C       54.00282979      49.24228249      48.79092685
C       54.61313328      49.57301251      49.95585937
C       53.89751726      49.81865954      51.13621111
C       52.47322351      49.76971840      51.09834728
H       47.98999133      52.15334899      50.81729599
H       45.52217705      52.12893134      50.87148634
H       44.32624421      50.04636232      50.06748613
H       45.66543182      48.00563196      49.35373503
H       48.23496838      47.97286232      49.54219722
H       52.14747012      48.86290359      47.86986920
H       54.53327365      49.05132943      47.90661043
H       55.67305461      49.56108587      49.84848384
H       54.23635498      50.00350978      52.16973256
H       52.00302354      49.97665726      52.04770217
