20
Lattice="100.0 0.0 0.0 0.0 100.0 0.0 0.0 0.0 100.0" Properties=species:S:1:pos:R:3 Energy=-322800.28125 Energy_pyscf=-322803.2150309338 Energy_nn=-322802.65625 pbc="F F F"
C       46.57587714      51.16338691      50.59867339
C       47.91329764      50.87529775      49.85661129
O       48.24007675      51.63575042      48.99470577
N       48.61462674      49.91157038      50.31265729
C       50.04602719      49.98255323      50.27291478
C       50.59369588      48.77556882      49.84368942
C       51.90305180      48.85391121      49.53520151
C       52.62601601      50.08343993      49.92778255
O       53.94422190      50.13076419      49.48912837
C       52.12397958      51.18868144      50.56454857
C       50.70307116      51.17056651      50.71473529
H       46.01401260      51.73972842      49.82951474
H       46.93088616      51.57801099      51.66656078
H       46.12432394      50.21910553      50.76457029
H       48.20076940      49.34664882      51.03480062
H       50.10679303      47.88710162      49.52199112
H       52.28105723      48.09195068      48.91384511
H       54.12570637      49.21955133      49.08559371
H       52.71899287      52.09204275      50.50573822
H       49.97592643      51.95999394      51.07113709
