20
Lattice="100.0 0.0 0.0 0.0 100.0 0.0 0.0 0.0 100.0" Properties=species:S:1:pos:R:3 Energy=-322841.65625 Energy_pyscf=-322830.7118708063 Energy_nn=-322838.875 pbc="F F F"
C       46.09941669      50.55845059      50.14775754
C       47.53785744      50.72984320      50.46037767
O       47.87662852      51.47657378      51.42433256
N       48.45411922      50.10600214      49.62237507
C       49.86925281      49.97655951      49.78438148
C       50.57971105      49.15364696      48.87054650
C       52.07040796      49.12233835      48.90872965
C       52.70464240      49.62292039      50.04885396
O       54.02647645      49.77925901      50.02588445
C       51.97133861      50.27302530      51.07904572
C       50.59715521      50.44863369      50.93187055
H       45.91714239      49.57914055      49.75104687
H       45.64949914      51.32954166      49.43466713
H       45.47823494      50.81612216      51.13185186
H       47.98137655      49.53876521      48.87314101
H       50.11003555      48.57850889      48.07246922
H       52.68449401      48.65086954      48.16319874
H       54.30836283      50.03233945      50.86993410
H       52.47836018      50.55226093      52.02545210
H       50.26675599      51.23395993      51.58483791
