20
Lattice="100.0 0.0 0.0 0.0 100.0 0.0 0.0 0.0 100.0" Properties=species:S:1:pos:R:3 Energy=-322832.59375 Energy_pyscf=-322830.8708449293 Energy_nn=-322834.5625 pbc="F F F"
C       46.22125425      50.75407231      50.28005405
C       47.69963332      50.63969004      50.69215578
O       48.01903942      50.39542814      51.83090641
N       48.68253467      50.63437487      49.67295222
C       50.03078026      50.40093102      49.79784354
C       50.65709188      49.49057146      48.87092449
C       51.95951309      49.10920413      49.20937933
C       52.70655527      49.67288822      50.26711367
O       54.08131339      49.43249866      50.32598121
C       52.07770383      50.65322099      51.03999851
C       50.74315928      50.95386494      50.75850136
H       45.89209061      49.75117596      50.10784391
H       46.15807725      51.42826928      49.35506270
H       45.68200857      51.17562449      51.14942559
H       48.25469460      50.68837320      48.73964997
H       49.98935958      49.07256462      48.08060132
H       52.37572416      48.14392729      48.77984617
H       54.30381308      48.94636389      49.52640788
H       52.61805246      51.36141193      51.73792887
H       50.27033628      51.54596390      51.48519786
