20
Lattice="100.0 0.0 0.0 0.0 100.0 0.0 0.0 0.0 100.0" Properties=species:S:1:pos:R:3 Energy=-322824.875 Energy_pyscf=-322822.5180953672 Energy_nn=-322828.0625 pbc="F F F"
C       46.61417684      51.11596985      50.11478242
C       47.85108541      50.30049168      49.80230698
O       47.95619674      49.62195951      48.75415652
N       48.86444636      50.40265427      50.72885124
C       50.22104707      50.04342444      50.19095199
C       50.68875055      48.73646061      50.22817091
C       52.04329728      48.55159288      49.85735912
C       52.96702510      49.60526949      49.52931355
O       54.21565931      49.39960127      49.26564246
C       52.43208614      50.90804849      49.66229535
C       51.12666692      51.07029960      50.04593052
H       46.78251277      51.31590386      51.21405069
H       45.73545302      50.48855833      49.97886054
H       46.46365570      51.87431958      49.37073381
H       48.81756304      51.27940599      51.20828799
H       50.23563876      47.86587154      50.48503998
H       52.44291501      47.52528029      49.93353945
H       54.46851706      48.52090822      48.90549298
H       53.11165622      51.75837752      49.58138587
H       50.60258645      52.11628909      49.99415966
