20
Lattice="100.0 0.0 0.0 0.0 100.0 0.0 0.0 0.0 100.0" Properties=species:S:1:pos:R:3 Energy=-322796.84375 Energy_pyscf=-322795.95362435636 Energy_nn=-322801.125 pbc="F F F"
C       46.45280268      50.98647671      50.42861794
C       47.70714684      50.46068937      49.62723329
O       47.79145891      49.91310895      48.52423335
N       48.76371030      50.60356759      50.45777751
C       50.20336331      50.23228237      49.98710749
C       50.46392858      48.94686965      50.14528362
C       51.82294714      48.68698015      49.93462654
C       52.91956917      49.69399264      49.61122955
O       54.28335349      49.38830343      49.46864841
C       52.46193314      51.02557221      49.67519507
C       51.14843746      51.32367419      49.95064085
H       46.47723573      50.74586682      51.46948185
H       45.57300431      50.59449382      49.99797895
H       46.28508614      52.13759151      50.17391678
H       48.55285658      50.99856377      51.36156492
H       49.85908891      48.21472033      50.46428814
H       52.20571703      47.71799294      49.88445037
H       54.48791323      48.73403144      48.82992852
H       53.06769589      51.98204392      49.58962725
H       50.95724014      52.33954656      50.27986983
