20
Lattice="100.0 0.0 0.0 0.0 100.0 0.0 0.0 0.0 100.0" Properties=species:S:1:pos:R:3 Energy=-322810.375 Energy_pyscf=-322801.5648887148 Energy_nn=-322812.53125 pbc="F F F"
C       46.14040048      49.97211854      50.61666748
C       47.53775081      50.46075437      50.69365368
O       47.96373947      51.03704898      51.74057218
N       48.46354690      50.02550480      49.53555513
C       49.83387304      49.77937234      49.90029176
C       50.64656026      49.35312024      48.79991441
C       51.97543434      49.08667966      49.08626855
C       52.65473976      49.52798271      50.21847282
O       53.96800754      49.18253881      50.17598772
C       51.90076076      50.19330427      51.11323786
C       50.41857626      50.20521333      51.13079721
H       45.86992260      49.45266900      51.56897751
H       46.06519468      49.25962368      49.80183777
H       45.43171805      50.72683580      50.14595766
H       48.00907466      49.57063834      48.80092732
H       50.19619149      49.08910326      47.94828236
H       52.51507503      48.60793313      48.29390256
H       54.42874480      49.76604072      50.76721482
H       52.18545858      50.99202768      51.82848704
H       49.83685064      50.81027670      51.87581565
