20
Lattice="100.0 0.0 0.0 0.0 100.0 0.0 0.0 0.0 100.0" Properties=species:S:1:pos:R:3 Energy=-322797.875 Energy_pyscf=-322773.2793668962 Energy_nn=-322801.46875 pbc="F F F"
C       46.27770900      51.24348605      50.56761280
C       47.83592175      50.99874168      50.15237781
O       48.36048579      51.91846662      49.48274533
N       48.69801760      50.01472780      50.63034363
C       50.14437443      49.84591494      50.35744549
C       50.69147918      48.87537566      49.70681387
C       52.00715412      48.84924544      49.35555930
C       52.69250535      49.95323881      49.94492066
O       54.01083042      49.96484667      49.63399508
C       52.11017140      51.18189362      50.49180518
C       50.74753262      51.09404966      50.74354493
H       45.81144755      51.14924581      49.63200274
H       45.98297125      52.14678430      51.14420446
H       46.11694130      50.29805832      51.16153792
H       48.11778348      49.19301148      50.81838871
H       50.21723220      47.96562936      49.65030931
H       52.28094279      48.21668540      48.52778995
H       54.40281672      49.24740746      49.18295157
H       52.96773941      51.90893370      50.23848779
H       50.24706302      51.89859107      51.13599441
