20
Lattice="100.0 0.0 0.0 0.0 100.0 0.0 0.0 0.0 100.0" Properties=species:S:1:pos:R:3 Energy=-322810.8125 Energy_pyscf=-322805.6510541899 Energy_nn=-322813.09375 pbc="F F F"
C       46.36757621      50.65178168      50.56935554
C       47.74236010      50.23054294      50.85735171
O       48.08230981      50.17388664      52.02923402
N       48.57769797      50.27225972      49.69135748
C       49.90954818      50.12854842      49.81727442
C       50.81480161      49.35896396      48.89139757
C       52.20368660      49.34937242      49.13729740
C       52.70260391      49.84051431      50.41665752
O       54.06807930      49.50836759      50.72470929
C       51.95525117      50.62808827      51.16396131
C       50.59136337      50.71198662      50.87485196
H       45.94418857      50.32166368      49.53551060
H       46.03989305      51.70775284      50.70256012
H       45.80833675      50.22139747      51.30896060
H       48.18942114      50.51360016      48.81265596
H       50.23940948      48.94378170      48.04133489
H       52.73181255      48.62587500      48.54813475
H       53.93397444      48.52711952      50.86576502
H       52.40849820      51.34761604      51.98763902
H       50.15886522      51.40251549      51.52026852
