20
Lattice="100.0 0.0 0.0 0.0 100.0 0.0 0.0 0.0 100.0" Properties=species:S:1:pos:R:3 Energy=-322791.15625 Energy_pyscf=-322775.53784830414 Energy_nn=-322796.71875 pbc="F F F"
C       46.15516046      50.81668129      49.91670276
C       47.67321665      50.53800275      50.31744764
O       47.88975464      50.40213564      51.52516862
N       48.65026346      50.27127699      49.45723383
C       50.11132254      50.21126531      49.63573140
C       50.70364296      49.27929162      48.79567217
C       52.17516793      49.05359718      48.94707885
C       52.81758153      49.57078099      49.98266727
O       54.20029658      49.50391766      50.09592114
C       52.16174250      50.59186400      50.81724627
C       50.83845997      51.04962443      50.50123986
H       45.89763500      50.15934362      48.92197696
H       45.83870409      51.63115228      49.40106287
H       45.49723655      50.66242556      50.65029300
H       48.45660159      50.64467551      48.51785276
H       50.27204516      48.77366510      47.99360265
H       52.63041932      48.25028613      48.56123247
H       54.60181363      50.39285822      50.27516682
H       52.44339660      51.01097585      51.74747890
H       50.31652257      51.53459326      51.47243197
