20
Lattice="100.0 0.0 0.0 0.0 100.0 0.0 0.0 0.0 100.0" Properties=species:S:1:pos:R:3 Energy=-322827.96875 Energy_pyscf=-322820.56242229964 Energy_nn=-322828.09375 pbc="F F F"
C       46.35333798      51.22771459      50.51840873
C       47.80968921      51.08174741      50.11833392
O       48.32947782      51.84816487      49.31153262
N       48.56364879      49.86459345      50.28321940
C       49.93549341      49.95887710      50.22528798
C       50.68799721      48.79370880      49.85273963
C       52.00310718      48.81712316      49.59524194
C       52.77339502      50.05007201      49.77217369
O       54.07263509      50.14283397      49.48132592
C       52.11524127      51.08334665      50.34571924
C       50.68042494      51.06432974      50.57259174
H       45.79542308      51.85230405      49.82990661
H       46.35806188      51.77576622      51.52328345
H       45.98955926      50.16926075      50.80073647
H       48.15363280      49.20868688      50.93955433
H       50.32043515      47.79422482      49.71160257
H       52.50190530      47.92105163      49.08041903
H       54.28967885      49.36827973      48.93154609
H       52.68624512      52.00306219      50.50383848
H       50.31178314      51.95769174      51.21274057
