20
Lattice="100.0 0.0 0.0 0.0 100.0 0.0 0.0 0.0 100.0" Properties=species:S:1:pos:R:3 Energy=-322842.21875 Energy_pyscf=-322838.27132215566 Energy_nn=-322839.65625 pbc="F F F"
C       46.40703016      50.38455317      49.94908269
C       47.81471358      50.49940639      50.41894847
O       48.13942596      51.34653399      51.28800546
N       48.75313100      49.71314843      49.80518441
C       50.15466995      49.71669953      49.93566760
C       50.83444420      48.97177019      48.87143664
C       52.26125482      48.97334228      48.85856963
C       52.93734623      49.61418897      49.87764731
O       54.32804527      49.52081772      49.83255660
C       52.24300587      50.31480350      50.82661814
C       50.85017994      50.35064115      50.93593720
H       46.09904241      51.06531658      49.12973527
H       45.60848282      50.54237476      50.74383164
H       46.31380268      49.45272088      49.46130221
H       48.33569873      49.01109139      49.16275601
H       50.31167873      48.44821433      48.11817548
H       52.87321253      48.48728729      48.07744821
H       54.70369734      50.32595359      50.15418503
H       52.86638073      50.89989893      51.44373255
H       50.33609874      50.77389593      51.76723183
