20
Lattice="100.0 0.0 0.0 0.0 100.0 0.0 0.0 0.0 100.0" Properties=species:S:1:pos:R:3 Energy=-322801.1875 Energy_pyscf=-322790.5022389176 Energy_nn=-322806.0 pbc="F F F"
C       46.07391804      50.66116748      50.17367209
C       47.48223449      50.80087654      50.43627878
O       47.88008202      51.68916988      51.16049962
N       48.42724774      49.83154040      49.85466810
C       49.75219148      49.95143747      49.88106759
C       50.49513477      49.34487268      48.99473517
C       51.86244756      48.97678976      49.05477046
C       52.65571217      49.82118936      49.96432123
O       54.05203221      49.60521758      49.90270147
C       51.89975678      50.42003966      50.90578218
C       50.53589425      50.46330051      50.94561727
H       45.58432306      50.76958977      51.07676241
H       45.81584979      49.51061396      50.01633364
H       45.86459352      51.21373426      49.26127171
H       48.03875874      49.43648537      48.98163390
H       50.09033321      48.86072480      48.10888302
H       52.35036704      48.68584146      48.22300473
H       54.35630565      50.12600971      49.14727956
H       52.36423008      51.23144003      51.66334066
H       50.02839308      50.85274701      51.83309847
