20
Lattice="100.0 0.0 0.0 0.0 100.0 0.0 0.0 0.0 100.0" Properties=species:S:1:pos:R:3 Energy=-322819.15625 Energy_pyscf=-322813.88005701156 Energy_nn=-322819.46875 pbc="F F F"
C       46.31703009      50.25029043      50.08524369
C       47.64537725      50.54015567      50.68253646
O       47.79267461      51.02653144      51.79539951
N       48.65891715      50.26818218      49.77557607
C       50.02046112      50.05367815      49.98773883
C       50.71520856      49.47025300      49.02677612
C       52.10887151      49.21386581      48.94250760
C       52.81601717      49.66010365      49.99880125
O       54.27079065      49.38169353      50.11689289
C       52.18308773      50.47783447      50.99494017
C       50.87828164      50.83211483      50.81632339
H       46.23774047      50.38695776      48.99727231
H       45.64183862      51.00081748      50.49310537
H       45.90937910      49.24022824      50.30890979
H       48.29813930      49.83768158      48.92928487
H       50.24120574      48.96417803      48.25508527
H       52.53414610      48.65730916      48.18746073
H       54.59545963      49.92585436      50.91141267
H       52.68717340      50.58314162      52.01736495
H       50.60353324      51.47203763      51.63398860
