20
Lattice="100.0 0.0 0.0 0.0 100.0 0.0 0.0 0.0 100.0" Properties=species:S:1:pos:R:3 Energy=-322789.65625 Energy_pyscf=-322777.74929089675 Energy_nn=-322795.625 pbc="F F F"
C       46.42558709      51.44886458      50.36519877
C       47.65094929      50.64598164      49.80759860
O       47.46064404      49.81270295      48.98481754
N       48.69723711      50.78702851      50.64341797
C       49.97776717      50.27924505      50.47176095
C       50.32970540      49.00002174      50.52061532
C       51.61688350      48.66891747      50.33116162
C       52.59586965      49.68595870      50.05958264
O       54.06729463      49.55321856      49.91931917
C       52.24019927      51.09677328      49.93355718
C       50.82775953      51.43449018      50.08558720
H       46.48430404      52.48250582      50.46100966
H       45.92667464      50.73980471      51.19436675
H       45.63485522      51.18591662      49.75762883
H       48.80840685      51.66210629      51.11567923
H       49.63518419      48.16806464      50.36170381
H       52.05581636      47.77889995      50.48211344
H       54.27593206      49.19463470      49.03800732
H       52.98910193      51.80702484      49.36232797
H       50.37576051      52.53131397      49.97133055
