20
Lattice="100.0 0.0 0.0 0.0 100.0 0.0 0.0 0.0 100.0" Properties=species:S:1:pos:R:3 Energy=-322823.125 Energy_pyscf=-322826.235313057 Energy_nn=-322823.1875 pbc="F F F"
C       46.38186970      50.56801550      50.28681226
C       47.82538425      50.48767048      50.76497649
O       48.18975798      50.70350158      51.87837460
N       48.68109118      50.30169805      49.71812647
C       50.11062747      50.16312426      49.91261851
C       50.88251839      49.51095977      49.04256828
C       52.19141893      49.14135755      49.20862919
C       52.81949888      49.73306427      50.29202956
O       54.16827143      49.47780296      50.35493157
C       52.10781833      50.55079927      51.16179787
C       50.82009021      50.85992485      50.91175985
H       46.12399331      51.50520446      49.72602568
H       45.73924429      50.81736624      51.11217872
H       46.10755567      49.74355541      49.56846178
H       48.33764381      49.85275921      48.87343964
H       50.30706696      48.83335018      48.30686520
H       52.65058062      48.42622611      48.50748758
H       54.46815210      49.44801743      51.24451956
H       52.49776052      50.99304493      52.02378735
H       50.33665321      51.55489404      51.61208782
