20
Lattice="100.0 0.0 0.0 0.0 100.0 0.0 0.0 0.0 100.0" Properties=species:S:1:pos:R:3 Energy=-322790.9375 Energy_pyscf=-322776.03511718404 Energy_nn=-322798.46875 pbc="F F F"
C       46.44154886      50.39388000      49.86646190
C       47.90454560      50.53342150      50.14516456
O       48.14070485      51.44672215      51.05634874
N       48.77965836      49.44723140      49.95430347
C       50.21228968      49.68017123      50.05758796
C       50.95449634      49.09443241      49.03485470
C       52.32174936      48.90789994      48.94238073
C       52.87539406      49.60779665      50.00965967
O       54.25320446      49.71419831      49.66864725
C       52.26369972      50.31734793      51.03890810
C       50.82923606      50.19197219      51.30291965
H       46.26696752      50.87162738      48.92543177
H       45.84254210      50.95153078      50.65371893
H       46.01880579      49.34343899      49.50030139
H       48.46207150      49.02196596      49.02794261
H       50.37510875      48.67941982      48.14764097
H       52.57256815      48.39135238      48.16067705
H       54.26835687      50.64109155      49.39787676
H       53.12008973      50.66799253      51.66404931
H       50.24934339      50.47192304      52.18814788
