20
Lattice="100.0 0.0 0.0 0.0 100.0 0.0 0.0 0.0 100.0" Properties=species:S:1:pos:R:3 Energy=-322824.0625 Energy_pyscf=-322819.4697968764 Energy_nn=-322823.875 pbc="F F F"
C       46.36471276      50.64969195      50.27776109
C       47.77076532      50.66763761      50.73530364
O       48.13877115      50.96492528      51.82768787
N       48.63245965      50.22152477      49.76758858
C       50.12729712      50.14794147      49.87482950
C       50.80405006      49.31303571      48.92678387
C       52.22843626      49.19338248      49.17853641
C       52.89626389      49.65157340      50.26254203
O       54.32105893      49.58975693      50.45598270
C       52.04902984      50.36304807      51.14964142
C       50.75715643      50.55922923      51.02292986
H       46.28969547      51.31461036      49.35629446
H       45.77575062      51.05691522      51.10942871
H       46.03643941      49.72943783      49.95964263
H       48.22643152      49.66602435      49.04289586
H       50.47200923      48.82828926      48.02189379
H       52.67792758      48.68545968      48.39742737
H       54.49351882      49.68924320      51.37426275
H       52.61162415      50.91944772      51.91182797
H       50.26908535      51.12707624      51.82219534
