20
Lattice="100.0 0.0 0.0 0.0 100.0 0.0 0.0 0.0 100.0" Properties=species:S:1:pos:R:3 Energy=-322799.8125 Energy_pyscf=-322800.78317408345 Energy_nn=-322803.8125 pbc="F F F"
C       46.14708345      50.50500471      50.08437321
C       47.57082532      50.55507598      50.68264056
O       47.71011494      51.22600039      51.72350697
N       48.63591135      49.93642238      49.81993022
C       50.08998466      50.10598927      49.91233615
C       50.79111126      49.40291668      48.95151646
C       52.12859772      49.25412688      49.03552031
C       52.77287557      49.73503999      50.06314901
O       54.17718810      49.41022110      50.06752183
C       52.05529865      50.58894950      51.05074643
C       50.71567020      50.66647694      51.01133528
H       45.64663999      51.02502811      50.92829616
H       45.70234919      49.44233359      50.09069318
H       45.73743601      50.95262869      49.27371037
H       48.20901986      49.96304327      48.90209677
H       50.42186067      48.76987209      48.22784869
H       52.71745252      48.69420051      48.29447493
H       54.40010749      49.22442986      51.00345727
H       52.73916282      51.27384746      51.64049482
H       50.03360846      51.20412104      51.74707580
