20
Lattice="100.0 0.0 0.0 0.0 100.0 0.0 0.0 0.0 100.0" Properties=species:S:1:pos:R:3 Energy=-322793.09375 Energy_pyscf=-322773.30385308055 Energy_nn=-322797.5 pbc="F F F"
C       46.02185816      50.63823068      50.24657068
C       47.52416746      50.98742292      50.27939113
O       47.96747588      52.11294569      50.60571457
N       48.32581390      49.87308193      49.85352459
C       49.80341193      49.87193690      49.84251108
C       50.59201881      49.28914630      48.79019603
C       51.89487972      48.94571647      48.86777389
C       52.70584181      49.78741873      49.91566139
O       54.07185309      49.86254144      50.17202280
C       52.02879556      50.41033358      50.90409573
C       50.46477056      50.30958478      50.86834820
H       45.50387654      50.46400234      51.26349265
H       45.86636462      49.64009954      50.05010999
H       45.35608981      51.32633516      49.78971182
H       47.86764204      49.45305554      49.03823968
H       50.28617404      48.74797831      47.89894407
H       52.41982868      48.19053788      48.22732663
H       54.44515929      50.37545713      49.50433333
H       52.42625022      50.97447628      51.69006610
H       50.02435833      51.03597553      51.81296532
