20
Lattice="100.0 0.0 0.0 0.0 100.0 0.0 0.0 0.0 100.0" Properties=species:S:1:pos:R:3 Energy=-322790.8125 Energy_pyscf=-322781.784124386 Energy_nn=-322797.0 pbc="F F F"
C       46.29644908      51.26039828      50.12773469
C       47.36951610      50.32469822      49.59729157
O       47.34446530      49.17947601      49.11392945
N       48.67722978      51.12498218      49.42648183
C       49.90831770      50.39881052      49.44918059
C       50.17722083      48.95677081      49.40848260
C       51.55175542      48.67732287      49.48574409
C       52.55975840      49.71475111      49.65217633
O       53.97159063      49.42361677      49.55481620
C       52.18618742      50.91536887      49.39477689
C       50.87909701      51.41507155      49.48037090
H       46.79350160      52.30370519      50.11897977
H       46.04549295      51.06082566      51.24863946
H       45.49321014      50.99126642      49.43619625
H       48.69387883      51.78615905      50.19415395
H       49.28742632      48.38158404      49.66888515
H       51.98770852      47.60937121      49.43896247
H       53.99265471      48.88497936      48.75001013
H       52.98445643      51.56771080      49.51949349
H       50.90891838      52.52120059      49.56696605
