20
Lattice="100.0 0.0 0.0 0.0 100.0 0.0 0.0 0.0 100.0" Properties=species:S:1:pos:R:3 Energy=-322803.96875 Energy_pyscf=-322800.92757352587 Energy_nn=-322806.8125 pbc="F F F"
C       46.23926718      51.32704194      50.11936239
C       47.35014144      50.28471588      49.80657454
O       47.14056086      49.09162499      49.67631128
N       48.65680299      50.93060800      49.69130544
C       49.91819052      50.27753725      49.41647141
C       50.14607758      48.91832800      49.42624021
C       51.67999167      48.62160113      49.27573873
C       52.60420158      49.53973665      49.51969229
O       54.06248602      49.31356309      49.66614071
C       52.17033593      50.95589370      49.58185339
C       50.90757899      51.35313526      49.43518111
H       46.68732994      52.36812720      50.07408867
H       45.81584292      51.43475852      51.16065294
H       45.40826627      51.20439729      49.33745034
H       48.75984190      51.92923510      49.97936698
H       49.32408296      48.04131476      49.58739700
H       51.95436575      47.59995987      48.95214234
H       54.53587174      49.26926542      48.85274550
H       52.95583554      51.67001832      49.83184154
H       50.79506856      52.42407618      49.26601720
