20
Lattice="100.0 0.0 0.0 0.0 100.0 0.0 0.0 0.0 100.0" Properties=species:S:1:pos:R:3 Energy=-322837.625 Energy_pyscf=-322831.186709006 Energy_nn=-322835.53125 pbc="F F F"
C       46.26031667      50.69078366      50.00282918
C       47.62111258      50.58582693      50.64509825
O       47.84528390      51.09848786      51.72478050
N       48.58669857      50.15254678      49.79749471
C       50.01281987      50.02402924      49.91684042
C       50.67539635      49.25415855      48.99706819
C       52.12329968      49.08030795      48.99298894
C       52.84717531      49.70743995      50.00678318
O       54.19860330      49.43829595      50.09866014
C       52.16674947      50.56440195      50.98425152
C       50.79111332      50.56891670      50.96444583
H       45.63627521      51.55153539      50.20442510
H       45.62158200      49.88001186      50.45691927
H       46.27514409      50.46841772      48.88438164
H       48.22058264      49.69935398      48.93343329
H       50.02498829      48.70190260      48.14375665
H       52.75843960      48.37351904      48.33165623
H       54.47120328      50.19914622      50.67276415
H       52.60946344      50.94492541      51.91153922
H       50.24127107      51.32060701      51.51317837
