20
Lattice="100.0 0.0 0.0 0.0 100.0 0.0 0.0 0.0 100.0" Properties=species:S:1:pos:R:3 Energy=-322836.75 Energy_pyscf=-322835.0493913383 Energy_nn=-322835.84375 pbc="F F F"
C       46.37942548      50.60615226      50.36125429
C       47.81071849      50.59576314      50.66850748
O       48.19837063      50.91572095      51.82270268
N       48.73924121      50.35205735      49.65644347
C       50.08540679      50.22006350      49.81138123
C       50.78892353      49.21458526      49.02603252
C       52.16533576      49.13054034      49.12787642
C       52.84754267      49.66330239      50.26553352
O       54.16473532      49.41213433      50.50946069
C       52.13628192      50.54331499      51.02630125
C       50.75700181      50.79056768      50.84504668
H       46.20608880      51.63385818      50.16611334
H       45.73212593      50.36658164      51.19939618
H       46.16580858      49.99630878      49.44071431
H       48.32940690      49.84398081      48.84872698
H       50.33283190      48.73562011      48.17437953
H       52.83923916      48.47118977      48.53710113
H       54.20900018      49.67258177      51.44716802
H       52.59705880      51.01653565      51.97560695
H       50.24446886      51.49234937      51.57298498
