20
Lattice="100.0 0.0 0.0 0.0 100.0 0.0 0.0 0.0 100.0" Properties=species:S:1:pos:R:3 Energy=-322792.59375 Energy_pyscf=-322774.0895948881 Energy_nn=-322802.90625 pbc="F F F"
C       46.25961333      50.41587482      50.44081154
C       47.80621538      50.78997328      50.62210880
O       48.10844536      51.11238372      51.76414038
N       48.69730958      50.22821258      49.74262421
C       50.05652947      50.29739200      49.88945179
C       50.66613741      49.51625770      49.03636409
C       52.00585163      49.23701226      49.35477975
C       52.64205719      49.70309840      50.39494477
O       53.97014799      49.37805490      50.19024939
C       52.04846544      50.53284761      51.38016481
C       50.74243479      50.79580843      51.07464291
H       45.78285494      50.07734892      49.51078911
H       45.97432184      51.52922331      50.65432162
H       45.79778734      49.97948955      51.29779201
H       48.18945912      50.01741683      48.81928246
H       50.41793820      49.31185357      48.00313589
H       52.43824052      48.61523603      48.44072136
H       54.46610580      48.79906558      50.81311101
H       52.31886992      50.74278536      52.29597580
H       50.09580863      51.39896223      51.74962344
