20
Lattice="100.0 0.0 0.0 0.0 100.0 0.0 0.0 0.0 100.0" Properties=species:S:1:pos:R:3 Energy=-322821.90625 Energy_pyscf=-322816.0037188544 Energy_nn=-322821.9375 pbc="F F F"
C       46.59534181      50.90660215      50.16328682
C       47.84194672      50.23441455      49.74871382
O       47.88450355      49.34424214      48.91441689
N       48.98324115      50.70831236      50.37802490
C       50.31630128      50.20061370      50.12803676
C       50.77012161      48.95291053      50.27769546
C       52.03375922      48.59009198      49.88255510
C       52.86627199      49.62377795      49.55964451
O       54.16858047      49.19698784      49.21413935
C       52.57472780      50.95140743      49.82444608
C       51.22960604      51.34970551      50.00990949
H       46.70860599      51.03142238      51.28617315
H       45.89118979      50.13937609      49.79545417
H       46.35443005      51.87269327      49.75302021
H       48.78243724      51.42269014      51.03989953
H       50.06247090      48.09177222      50.39544917
H       52.25625133      47.55343973      49.90733482
H       54.13639231      48.27903282      48.78471153
H       53.34992398      51.74306289      49.95792600
H       50.80722579      52.36350329      49.82844606
