20
Lattice="100.0 0.0 0.0 0.0 100.0 0.0 0.0 0.0 100.0" Properties=species:S:1:pos:R:3 Energy=-322833.5625 Energy_pyscf=-322832.3309646389 Energy_nn=-322832.53125 pbc="F F F"
C       46.23968216      50.29353736      50.31249919
C       47.63404648      50.53904454      50.68972124
O       47.82841650      50.92823388      51.83314114
N       48.60952989      50.03681769      49.84296077
C       50.05585985      50.05134719      49.93383542
C       50.78495093      49.50803649      48.80812178
C       52.20223824      49.22822168      48.97804606
C       52.80751557      49.64254947      50.14465847
O       54.10783635      49.29981818      50.44356206
C       52.11955700      50.33878639      51.15361666
C       50.76163307      50.67951755      51.01631314
H       45.88928195      51.00562163      49.38691093
H       45.64614398      50.50270904      51.22370851
H       45.99348486      49.32344930      49.87470692
H       48.30640643      49.90606645      48.84989182
H       50.14593420      49.24946867      47.93040369
H       52.81008821      48.84368540      48.13241130
H       54.32958521      49.78978205      51.28037475
H       52.69244387      50.95425874      51.96838142
H       50.25203078      51.18468284      51.84770279
