20
Lattice="100.0 0.0 0.0 0.0 100.0 0.0 0.0 0.0 100.0" Properties=species:S:1:pos:R:3 Energy=-322829.5 Energy_pyscf=-322825.94554962224 Energy_nn=-322827.125 pbc="F F F"
C       46.27316036      51.16923342      50.10685911
C       47.39209154      50.33675402      49.67751379
O       47.28918076      49.20183342      49.32874457
N       48.61470757      50.95502061      49.80883059
C       49.92216044      50.52361416      49.44777217
C       50.23942854      49.18297213      49.19856613
C       51.55536084      48.67892619      49.34226543
C       52.62653873      49.57643328      49.51216290
O       53.87980037      48.99146789      49.75330926
C       52.33610188      50.93552699      49.52507446
C       50.99089430      51.41792626      49.45238890
H       46.30884584      52.23435945      49.76844346
H       46.29982783      51.25364556      51.17822114
H       45.34532509      50.80276513      49.68774636
H       48.56018516      51.95698945      50.11282941
H       49.34830606      48.48853201      49.51881962
H       51.70991600      47.55613872      49.24202565
H       54.40399423      49.10556162      48.89472603
H       53.08778403      51.61124549      49.49749953
H       50.93252500      52.54761090      49.49742561
