20
Lattice="100.0 0.0 0.0 0.0 100.0 0.0 0.0 0.0 100.0" Properties=species:S:1:pos:R:3 Energy=-322814.15625 Energy_pyscf=-322810.41308532533 Energy_nn=-322813.1875 pbc="F F F"
C       46.32676124      50.77710153      49.86114221
C       47.71167031      50.65870585      50.46950667
O       47.98352797      50.82342929      51.68893620
N       48.56982757      50.24128334      49.44685542
C       49.91812572      50.07083874      49.65934707
C       50.73572883      49.31291228      48.80316943
C       52.14842063      49.32383945      48.80111918
C       52.81363205      49.92078120      49.90512096
O       54.15504927      49.40861063      50.00880370
C       52.04208071      50.67050261      50.85212598
C       50.54850932      50.76390509      50.60380055
H       46.11426045      49.99983919      49.04222552
H       46.33993589      51.72287013      49.31224043
H       45.50019965      50.64138946      50.56798372
H       48.16886120      50.26546479      48.50475567
H       50.31517858      48.71149783      48.15276340
H       52.68272831      48.41791760      48.23147625
H       54.64889974      50.03081176      50.51584442
H       52.57561737      51.02209792      51.73860625
H       50.04964150      51.48682480      51.35279804
