20
Lattice="100.0 0.0 0.0 0.0 100.0 0.0 0.0 0.0 100.0" Properties=species:S:1:pos:R:3 Energy=-322832.6875 Energy_pyscf=-322830.23108566366 Energy_nn=-322829.875 pbc="F F F"
C       46.34743287      50.69418770      50.05503956
C       47.75262575      50.84044769      50.64827270
O       47.89609797      50.95230325      51.89088677
N       48.67583696      50.65526422      49.76566608
C       49.97477076      50.24500980      49.92319007
C       50.70302588      49.60349746      48.93644717
C       52.10027813      49.35915767      49.03514996
C       52.80243785      49.78219980      50.16532595
O       54.15254159      49.52663606      50.19739162
C       52.06845412      50.62764878      51.09731236
C       50.70995103      50.79188004      50.98473619
H       46.14770726      49.62305614      50.25015465
H       46.25513905      50.64869307      49.00093757
H       45.49960643      51.37820552      50.36779737
H       48.30176908      50.53299083      48.79177279
H       50.24679628      49.15024908      48.09734341
H       52.56111121      48.80282656      48.20600942
H       54.43661265      49.58299180      51.09316592
H       52.75492664      51.20784163      51.78261641
H       50.17409813      51.37612734      51.74518201
