20
Lattice="100.0 0.0 0.0 0.0 100.0 0.0 0.0 0.0 100.0" Properties=species:S:1:pos:R:3 Energy=-322800.0625 Energy_pyscf=-322795.38598850166 Energy_nn=-322801.8125 pbc="F F F"
C       46.35306792      50.60160296      49.95520423
C       47.78697208      50.56061271      50.52698647
O       47.87731116      50.43369212      51.70026406
N       48.73398311      50.58965452      49.56712459
C       50.20463322      50.29817650      49.91036309
C       50.76707643      49.19178225      49.14167473
C       52.11376461      48.99712900      49.12985347
C       52.87432369      49.46496466      50.11135041
O       54.13815081      49.18368412      50.35820419
C       52.28322816      50.66653460      50.83353874
C       50.89637769      51.08711631      50.80490138
H       46.19258651      50.23984945      48.91691087
H       46.05028971      51.69938815      50.15121954
H       45.83371550      50.04299986      50.76868507
H       48.45298902      50.92720142      48.63555667
H       50.29572929      48.59091957      48.27455216
H       52.52953309      48.20652578      48.57770086
H       54.47576271      48.90518672      49.53060368
H       53.07579516      51.13258709      51.38686364
H       50.32427948      51.52903979      51.56137540
