20
Lattice="100.0 0.0 0.0 0.0 100.0 0.0 0.0 0.0 100.0" Properties=species:S:1:pos:R:3 Energy=-322809.28125 Energy_pyscf=-322798.36760276253 Energy_nn=-322809.71875 pbc="F F F"
C       46.37350065      50.45315992      49.91514854
C       47.71237740      50.48806809      50.51350233
O       47.87386220      50.65357394      51.68968292
N       48.77290953      50.66586857      49.54087654
C       50.06844429      50.37987066      49.85852238
C       50.63777550      49.42890070      49.00617821
C       51.84447881      48.91951087      49.06781279
C       52.75827522      49.45221744      50.07871153
O       54.07592777      49.44635447      50.06830192
C       52.23674254      50.42212121      50.96304448
C       50.82797921      50.99770802      50.85514143
H       46.30224692      49.63664414      49.13093097
H       45.91448929      51.23668977      49.17928647
H       45.59364717      50.38965335      50.67870597
H       48.39693715      50.22651296      48.71684824
H       50.24552998      48.99189418      48.07975494
H       52.09392523      48.02407465      48.45229478
H       54.37496029      49.88754462      50.87390239
H       52.95020495      50.93751796      51.60115470
H       50.59438320      51.88033939      51.29385741
