20
Lattice="100.0 0.0 0.0 0.0 100.0 0.0 0.0 0.0 100.0" Properties=species:S:1:pos:R:3 Energy=-322843.875 Energy_pyscf=-322837.4414689386 Energy_nn=-322839.5 pbc="F F F"
C       46.11217268      50.54133063      50.08869763
C       47.57305370      50.81663924      50.44784586
O       47.80932987      51.45955478      51.47961376
N       48.49115498      50.06396596      49.68361305
C       49.83745667      49.93300015      49.87775681
C       50.55654091      49.13657434      49.00363462
C       51.95558138      49.15110667      48.91147381
C       52.70954104      49.77376091      50.00509304
O       54.07568271      49.74896071      49.97836573
C       51.93969624      50.33308394      51.02289976
C       50.55055863      50.41203701      50.95518180
H       45.93377877      49.52246266      49.78019235
H       45.79040360      51.34099360      49.37848851
H       45.58371078      50.73269635      51.04580060
H       48.12198569      49.67929328      48.81957588
H       50.11287493      48.70225664      48.14120773
H       52.47753099      48.49777185      48.16698756
H       54.36628391      49.98865564      50.87823970
H       52.53678088      50.57270325      51.92894700
H       50.13172629      51.15674080      51.59780636
