20
Lattice="100.0 0.0 0.0 0.0 100.0 0.0 0.0 0.0 100.0" Properties=species:S:1:pos:R:3 Energy=-322796.21875 Energy_pyscf=-322785.28526480735 Energy_nn=-322799.46875 pbc="F F F"
C       46.47115403      50.43174848      50.52068774
C       47.84233461      50.77478549      49.96154845
O       48.11961079      51.91310652      49.54293444
N       48.83766280      49.62637997      49.91212508
C       50.28371282      49.79104343      49.76348148
C       50.79334535      48.73092632      48.96758533
C       52.15266061      48.69153322      48.87310663
C       52.88642420      49.72956863      49.64905887
O       54.28218384      49.51989390      49.63960005
C       52.34635081      50.56744661      50.53646495
C       50.95741141      50.46372222      50.66767528
H       45.74300225      50.77090137      49.84790673
H       46.27659667      50.67046790      51.55054421
H       46.32275312      49.39365396      50.58722777
H       48.30850373      48.91580488      50.39563892
H       50.12520902      48.09919529      48.13797759
H       52.87952667      48.27772732      48.12154815
H       54.57135764      50.01494418      48.85948543
H       52.82290336      51.28663070      51.23504235
H       50.53412421      50.81247752      51.52814375
