20
Lattice="100.0 0.0 0.0 0.0 100.0 0.0 0.0 0.0 100.0" Properties=species:S:1:pos:R:3 Energy=-322798.59375 Energy_pyscf=-322800.0636554426 Energy_nn=-322801.0 pbc="F F F"
C       46.21672883      50.02247587      50.17410992
C       47.56636885      50.52090308      50.52255677
O       47.89400942      51.43846173      51.28942297
N       48.50923759      49.68975591      49.81118169
C       49.89952202      49.83625759      49.86735551
C       50.49469757      49.41160764      48.82205759
C       51.92899955      49.13179529      48.91580157
C       52.56913102      49.43518818      50.08125403
O       53.97497657      49.25631454      50.24928729
C       51.85101191      50.24597530      51.09211436
C       50.47178525      50.25003795      51.08264892
H       45.99052981      48.86474296      50.06777592
H       46.03867622      50.36647226      49.22492548
H       45.54179140      50.42441935      50.95000078
H       48.04361012      48.94146987      49.33563557
H       49.86802855      49.09761952      48.00724368
H       52.28853134      48.55587023      47.98295040
H       54.20743502      50.06526142      50.76525725
H       52.59038687      50.76032903      51.70229202
H       49.96381347      50.91864376      51.65138594
