20
Lattice="100.0 0.0 0.0 0.0 100.0 0.0 0.0 0.0 100.0" Properties=species:S:1:pos:R:3 Energy=-322798.5625 Energy_pyscf=-322790.24790620053 Energy_nn=-322802.625 pbc="F F F"
C       46.25804048      50.58881249      50.28724018
C       47.79744565      50.64644710      50.60230111
O       48.27655289      50.89414642      51.74915493
N       48.73347331      50.70715748      49.56222301
C       50.05735735      50.54751721      49.76839139
C       50.72610160      49.59027557      48.80252453
C       52.10947635      49.27804424      48.93928043
C       52.72414416      49.98333411      50.07497775
O       53.98994444      49.62807728      50.20853161
C       52.02692848      50.71332239      51.03263214
C       50.63450150      50.81207939      51.00951169
H       45.83489019      49.64508209      49.95283658
H       46.28920473      51.04102092      49.15755017
H       45.64948773      51.07199230      50.99316104
H       48.50682483      50.77974304      48.51545993
H       50.21715525      48.78569097      48.07632801
H       52.84495121      48.53264515      48.61660431
H       54.25019802      49.63345137      51.17996509
H       52.62226241      51.09986205      51.89735264
H       50.02181045      51.37463867      51.62922816
