20
Lattice="100.0 0.0 0.0 0.0 100.0 0.0 0.0 0.0 100.0" Properties=species:S:1:pos:R:3 Energy=-322835.125 Energy_pyscf=-322833.7496615456 Energy_nn=-322835.125 pbc="F F F"
C       46.08097701      50.55511264      50.23088045
C       47.49407545      50.75631888      50.45144486
O       47.93691991      51.57494055      51.26938432
N       48.39937751      50.01827251      49.76172701
C       49.80478773      49.87184021      49.94117396
C       50.52680548      49.17620161      48.93441310
C       51.93624107      49.09803187      48.93090388
C       52.59326204      49.88508264      49.95820138
O       53.94272420      49.78419437      50.06708303
C       51.85041842      50.51274263      50.87176286
C       50.47645378      50.60746380      50.97652844
H       45.57029666      50.48141855      51.22605244
H       45.87974856      49.67213090      49.58375917
H       45.75673968      51.37394832      49.64884738
H       48.07614644      49.56537980      48.93185470
H       50.05347284      48.58248287      48.15163662
H       52.55303444      48.59137429      48.22808333
H       54.34520667      49.79820041      49.18455439
H       52.47164954      51.10311378      51.58197855
H       49.89859622      51.22472811      51.65210829
