20
Lattice="100.0 0.0 0.0 0.0 100.0 0.0 0.0 0.0 100.0" Properties=species:S:1:pos:R:3 Energy=-322806.03125 Energy_pyscf=-322802.10836155916 Energy_nn=-322808.4375 pbc="F F F"
C       46.17589871      50.92595513      50.33262519
C       47.52201176      50.47195654      50.74092933
O       47.86185413      49.98192546      51.83436871
N       48.43617611      50.42097150      49.62110640
C       49.86275349      50.17997370      49.83633119
C       50.76068795      49.27810449      49.12151037
C       52.08267542      49.09071918      49.19829305
C       52.80638144      49.77492337      50.16974366
O       54.13964882      49.54114515      50.25200969
C       52.10332929      50.73529207      50.91824189
C       50.68621484      51.06261557      50.59219682
H       45.86228185      50.01323296      49.73238709
H       46.16831252      51.61816589      49.56875554
H       45.53018692      51.11948431      51.28351222
H       48.28136450      51.20021498      48.96402094
H       50.11858684      48.58933404      48.35506339
H       52.36973763      48.29764914      48.51178121
H       54.58682727      48.82592663      49.81997299
H       52.65051364      51.26654302      51.71146500
H       50.34830885      51.82168138      51.15842486
