20
Lattice="100.0 0.0 0.0 0.0 100.0 0.0 0.0 0.0 100.0" Properties=species:S:1:pos:R:3 Energy=-322817.375 Energy_pyscf=-322817.2953443433 Energy_nn=-322817.78125 pbc="F F F"
C       46.25507575      50.58445597      49.91399534
C       47.64575884      50.49450232      50.48472766
O       47.93256201      50.14578057      51.61218269
N       48.66003171      50.60790398      49.45561357
C       50.06729227      50.23207863      49.58118351
C       50.79288626      49.38549014      48.77128809
C       52.05313627      48.91994711      49.06306302
C       52.84174296      49.71442898      50.00944521
O       54.21621163      49.54479145      50.12366294
C       52.21098439      50.64851695      50.83704881
C       50.88281466      50.86250008      50.66638041
H       45.78782210      49.74567281      49.45045889
H       46.23290453      51.46527292      49.31512920
H       45.52643724      50.72155124      50.77789059
H       48.23237778      50.26846930      48.56869147
H       50.25817511      48.70634638      48.16159509
H       52.47775468      48.07195506      48.67742236
H       54.37316354      49.70394755      51.03571372
H       52.86412611      51.07520651      51.69327567
H       50.37764747      51.57715480      51.37614432
