20
Lattice="100.0 0.0 0.0 0.0 100.0 0.0 0.0 0.0 100.0" Properties=species:S:1:pos:R:3 Energy=-322805.46875 Energy_pyscf=-322791.7435703076 Energy_nn=-322808.78125 pbc="F F F"
C       46.16427285      51.17182853      50.10210898
C       47.51461262      50.33196622      49.67895279
O       47.46389303      49.26798255      49.13567504
N       48.78352750      51.04367473      49.85031103
C       49.93068943      50.58452173      49.35048686
C       50.15305711      49.27396735      49.41751256
C       51.43148735      48.80566623      49.22766304
C       52.50290102      49.58249419      49.42190849
O       53.84940014      49.38832281      49.70881314
C       52.40786379      51.01083750      49.38845226
C       51.07849403      51.38924393      49.31662634
H       46.30844145      52.19075476      49.97029331
H       45.94998707      50.96990442      51.26146990
H       45.33084671      50.93166986      49.35922345
H       48.67268415      51.75684400      50.51176442
H       49.47799447      48.48543394      49.76492177
H       51.62353805      47.70558848      49.20835402
H       54.24296087      48.63443172      49.20438256
H       53.37249070      51.57458734      49.26494107
H       50.88226331      52.47208792      49.48003972
