20
Lattice="100.0 0.0 0.0 0.0 100.0 0.0 0.0 0.0 100.0" Properties=species:S:1:pos:R:3 Energy=-322841.75 Energy_pyscf=-322837.895167991 Energy_nn=-322840.875 pbc="F F F"
C       46.24074737      50.77801492      49.86981260
C       47.58689277      50.65860460      50.62702662
O       47.93504325      51.11935806      51.70588670
N       48.48479515      49.85342343      49.89507702
C       49.91903581      49.84479258      49.94515424
C       50.64405390      49.04495906      48.93465776
C       52.03982026      48.99061027      48.94343098
C       52.73984843      49.72074214      49.95146274
O       54.09996916      49.67282812      49.96207771
C       51.96506795      50.37584287      50.88312232
C       50.63381278      50.57909017      50.84263391
H       46.21446104      51.67202636      49.25457345
H       45.35408912      50.90826295      50.51546418
H       46.04353835      50.00061835      49.12608261
H       48.13632965      49.17148704      49.19685717
H       50.07949435      48.67673706      48.07642729
H       52.55928038      48.38864885      48.14507250
H       54.48772889      50.47328744      50.34902963
H       52.47235483      50.91016063      51.67568586
H       50.08122394      51.09028388      51.66180414
