20
Lattice="100.0 0.0 0.0 0.0 100.0 0.0 0.0 0.0 100.0" Properties=species:S:1:pos:R:3 Energy=-322796.46875 Energy_pyscf=-322798.605888846 Energy_nn=-322801.65625 pbc="F F F"
C       46.22265291      50.29467200      50.12816606
C       47.59750380      50.64719437      50.66570624
O       47.80674694      50.95563137      51.87132836
N       48.71323220      50.45331402      49.84225002
C       50.11280764      50.27853955      50.01953459
C       50.57023601      49.25994846      49.20898649
C       52.01212730      48.96657452      49.14055869
C       52.79170536      49.70194551      50.21057712
O       54.18653734      49.33366897      50.19401279
C       52.23534030      50.56822165      51.06449301
C       50.97864856      50.97344121      50.99231540
H       46.27361356      49.99393315      48.98499864
H       45.59624754      51.07742502      50.46846060
H       46.22362717      49.23756949      50.55917099
H       48.52677099      49.97683482      48.93553509
H       49.99138710      48.54065342      48.54857127
H       52.65281003      48.32743831      48.45228665
H       54.61719840      49.91292504      50.84819590
H       52.78380014      50.56072162      52.02268562
H       50.70289416      51.70164558      51.72975162
