20
Lattice="100.0 0.0 0.0 0.0 100.0 0.0 0.0 0.0 100.0" Properties=species:S:1:pos:R:3 Energy=-322832.28125 Energy_pyscf=-322821.93388791103 pbc="F F F"
C       46.14986608      50.07189858      50.28159102
C       47.54501230      50.39175745      50.78487629
O       47.82031715      51.35804535      51.52465470
N       48.51958914      49.66333734      50.13069780
C       49.90487392      49.91592756      49.94648757
C       50.60008683      49.29751253      48.80047687
C       51.92097454      49.02416141      49.05174173
C       52.67850036      49.48693390      50.15599543
O       54.05120995      49.21954979      50.43203157
C       52.02036727      50.22212199      51.10102350
C       50.61516526      50.47011962      51.01629508
H       46.17575395      49.03653921      49.85506259
H       46.00865004      50.70478121      49.39596404
H       45.46580568      50.23291314      51.13215027
H       48.24927574      49.36993427      49.18503919
H       50.03697368      48.89260990      47.95762576
H       52.46158584      48.61239966      48.23386603
H       54.35869126      50.08003077      50.84445568
H       52.50873489      50.65186335      51.93422047
H       50.17099894      51.19065696      51.79641316
