20
Lattice="100.0 0.0 0.0 0.0 100.0 0.0 0.0 0.0 100.0" Properties=species:S:1:pos:R:3 Energy=-322805.78125 Energy_pyscf=-322793.5105906992 Energy_nn=-322806.90625 pbc="F F F"
C       46.53966451      50.91349899      50.13703385
C       47.77898373      50.15487559      49.81778920
O       47.84929402      49.26846671      48.93371667
N       48.92944806      50.64645273      50.37403789
C       50.17903391      50.14044191      50.27195717
C       50.60013776      48.82790275      50.16623956
C       51.94784032      48.68240355      49.79339654
C       52.85242445      49.65520166      49.46579066
O       54.12846433      49.28421561      49.52947602
C       52.66237355      50.94993692      49.69830291
C       51.20320749      51.17204523      50.04413561
H       46.58162672      51.45737608      51.18296791
H       45.75643972      50.19657558      50.09804061
H       46.38639719      51.70487825      49.39097855
H       48.89763121      51.29485307      51.18578087
H       50.13561817      47.92308351      50.40168928
H       52.23751214      47.65405350      49.75137937
H       54.29952265      48.68430808      48.85066302
H       53.45030675      51.59517091      49.61402483
H       51.17795827      52.31214813      50.16753000
