20
Lattice="100.0 0.0 0.0 0.0 100.0 0.0 0.0 0.0 100.0" Properties=species:S:1:pos:R:3 Energy=-322838.5 Energy_pyscf=-322838.66585785203 Energy_nn=-322839.0 pbc="F F F"
C       46.26165081      50.70454924      49.98271672
C       47.64183164      50.67214839      50.58011818
O       47.80734814      51.15153093      51.72884831
N       48.57293924      50.07789656      49.76149987
C       49.98525007      50.00812637      49.95216124
C       50.73167887      49.29046439      48.90791829
C       52.08263104      49.11546234      48.93549781
C       52.78195861      49.69098477      50.00066676
O       54.16120714      49.53402810      50.04102131
C       52.09442349      50.41467784      51.01828777
C       50.69326821      50.55412979      51.04505697
H       45.72125012      51.60788109      50.03417129
H       45.61631677      50.01063006      50.50466018
H       46.25929380      50.32012825      48.97221566
H       48.29134794      49.53269574      48.97872283
H       50.08788686      48.90176600      48.07218959
H       52.68334656      48.38529597      48.42630298
H       54.61226502      50.16192742      50.65872106
H       52.62381127      51.10541510      51.72178348
H       50.21580832      51.15097235      51.86790293
