20
Lattice="100.0 0.0 0.0 0.0 100.0 0.0 0.0 0.0 100.0" Properties=species:S:1:pos:R:3 Energy=-322840.15625 Energy_pyscf=-322839.0260932899 Energy_nn=-322835.8125 pbc="F F F"
C       46.35163334      50.59759484      50.24017622
C       47.75043072      50.65975799      50.85384545
O       48.06413437      51.11593940      51.94008632
N       48.73670696      50.22997920      49.87453830
C       50.15384301      50.17921014      49.92171370
C       50.77355790      49.37643287      48.99530829
C       52.14438032      49.08756400      49.20542581
C       52.87477562      49.68854633      50.23402186
O       54.20143595      49.35852901      50.36306097
C       52.17121698      50.48772569      51.12296868
C       50.86846820      50.83033893      50.98683948
H       46.19980944      51.38829278      49.51130516
H       45.58874845      50.57904630      50.98698315
H       46.22709605      49.59856415      49.69306168
H       48.40942854      50.01735278      48.91366524
H       50.35692867      48.87712551      48.11615994
H       52.63955117      48.41396797      48.48018548
H       54.32019142      49.65391007      51.28371438
H       52.83551178      50.97388968      51.89329329
H       50.29605361      51.25317078      51.80563474
