20
Lattice="100.0 0.0 0.0 0.0 100.0 0.0 0.0 0.0 100.0" Properties=species:S:1:pos:R:3 Energy=-322805.8125 Energy_pyscf=-322794.95189973497 Energy_nn=-322807.6875 pbc="F F F"
C       46.45162877      51.18667695      50.15926738
C       47.68754161      50.34254868      50.25728482
O       47.59364861      49.29073114      50.96419538
N       48.88431617      51.00151415      50.03408207
C       50.18340128      50.43350203      49.80129733
C       50.46657438      48.98467842      49.66099513
C       51.80609044      48.60447378      49.84516999
C       52.80722754      49.68659277      50.05198555
O       54.09234463      49.14547843      50.11395757
C       52.56196176      50.94805626      50.18099976
C       51.19715388      51.26372416      50.10505492
H       46.33504411      52.15250070      50.67800511
H       45.58379418      50.64664148      50.37513427
H       46.37033169      51.44233816      49.13854918
H       48.81571324      51.93354361      49.65234498
H       49.64240367      48.25802405      49.45211922
H       51.87545422      47.66193249      49.40443309
H       54.37555514      48.78005545      49.30672491
H       53.26974410      51.54287733      50.65660373
H       50.94654413      52.37783125      50.26663400
