20
Lattice="100.0 0.0 0.0 0.0 100.0 0.0 0.0 0.0 100.0" Properties=species:S:1:pos:R:3 Energy=-322791.1875 Energy_pyscf=-322779.4733324771 Energy_nn=-322798.5 pbc="F F F"
C       46.45507244      50.57050111      50.05063776
C       47.77117794      50.69638374      50.63909520
O       48.06598590      50.47681211      51.87013168
N       48.74550515      50.48988535      49.77772689
C       50.22111733      50.07566888      49.97549511
C       50.69788071      49.26277643      48.88713546
C       52.14078910      49.01136026      49.09764822
C       52.79742464      49.67118241      50.16677860
O       54.13241534      49.41559009      50.18089414
C       52.23739917      50.75974547      50.74023802
C       50.88524089      50.83106583      50.86476138
H       46.62525172      49.92711607      49.18239157
H       46.22127404      51.57981180      49.55414700
H       45.59622597      50.34791521      50.75373952
H       48.61802844      50.91959319      48.89399234
H       50.17969921      48.80525862      48.00463014
H       52.50570955      48.21309249      48.44916228
H       54.35769607      48.57074032      49.60415538
H       52.62134074      51.20683460      51.62816651
H       50.38428804      51.46331197      51.49984711
