20
Lattice="100.0 0.0 0.0 0.0 100.0 0.0 0.0 0.0 100.0" Properties=species:S:1:pos:R:3 Energy=-322815.90625 Energy_pyscf=-322814.87620616413 Energy_nn=-322819.34375 pbc="F F F"
C       46.31431239      50.79796934      49.83275490
C       47.63252590      50.64749744      50.37287288
O       47.95225156      51.32341462      51.36031803
N       48.48245339      49.74598944      49.67573746
C       49.99666075      49.55539290      49.84793645
C       50.62855316      48.98325772      48.71058150
C       51.98397055      48.96898267      48.92379790
C       52.76573556      49.59524707      49.94075547
O       54.18228606      49.76112400      49.92151646
C       52.04541173      50.33107603      50.88688049
C       50.67733925      50.16883847      50.87089666
H       46.36152553      51.42024782      48.93159530
H       45.73682549      51.12226820      50.72100676
H       45.94118816      49.89290283      49.48415088
H       47.97949008      49.03714906      49.13613229
H       49.98947825      48.73486028      47.87771255
H       52.75339276      48.54259941      48.28923263
H       54.29047764      50.48497951      50.58308021
H       52.61958172      50.73461701      51.73813529
H       50.14678373      50.77172671      51.64412479
