20
Lattice="100.0 0.0 0.0 0.0 100.0 0.0 0.0 0.0 100.0" Properties=species:S:1:pos:R:3 Energy=-322835.28125 Energy_pyscf=-322832.4600534262 Energy_nn=-322836.46875 pbc="F F F"
C       46.24067763      50.65125517      50.04679137
C       47.70500987      50.66144929      50.50472465
O       47.99870605      51.04584541      51.65719031
N       48.64145213      50.13046670      49.69527850
C       49.96522363      49.99796931      49.90707406
C       50.69375663      49.34235745      48.88387375
C       52.03703262      49.07304086      49.15725301
C       52.78958804      49.61628133      50.10666040
O       54.18123917      49.54746480      50.10795352
C       52.06018375      50.48772518      51.00752755
C       50.67068240      50.59309048      50.96580802
H       45.79992713      51.58904275      50.19851157
H       45.56888058      49.89898252      50.56570712
H       46.13610089      50.48932795      48.92409318
H       48.29986533      49.60720739      48.88667917
H       50.23008503      48.74584775      48.05177046
H       52.55324590      48.34415796      48.36348953
H       54.45173141      50.27453566      50.71787852
H       52.75859963      51.04268116      51.70442872
H       50.13022266      51.17546756      51.73879632
