20
Lattice="100.0 0.0 0.0 0.0 100.0 0.0 0.0 0.0 100.0" Properties=species:S:1:pos:R:3 Energy=-322793.28125 Energy_pyscf=-322774.02211657667 Energy_nn=-322798.59375 pbc="F F F"
C       46.56348056      50.67013022      50.27848435
C       47.90539522      50.35268710      49.60839219
O       48.18210367      49.62109034      48.62303267
N       49.05650950      51.00824196      50.25800342
C       50.22542022      50.25333998      50.31064563
C       50.58386659      48.93910001      50.44481562
C       51.94395771      48.62138194      49.93091326
C       52.85975555      49.64138478      49.60109959
O       54.24050893      49.30164938      49.29221380
C       52.67476125      50.95567992      49.73411835
C       51.24849542      51.32839059      49.85741713
H       46.56095597      50.88385738      51.30711080
H       45.92495790      49.79330680      49.95723433
H       46.31232412      51.72304318      49.89645275
H       48.71766256      51.44593995      51.10265973
H       49.76501258      48.25115787      50.29513388
H       52.01401747      47.54484476      49.80580915
H       54.24316677      48.29465775      49.00267279
H       53.58244795      51.46204006      49.54662545
H       51.00930534      52.51191177      49.98571675
