18
Properties=species:S:1:pos:R:3 Energy=-241639.0511115512 Energy_pyscf=-241638.7893872037 pbc="F F F"
C       48.87882808      48.43838505      50.19707403
C       47.63575901      49.03893609      50.07005349
C       47.51480742      50.41033357      49.81974061
C       48.57337025      51.25530315      49.67805189
C       49.96707163      50.77863586      49.96024166
C       51.16456526      51.57699330      49.87000105
C       52.36669540      50.86115998      50.02071347
C       52.44137429      49.54875022      50.23434141
C       51.34052663      48.71229548      50.16008824
C       50.09287587      49.35423436      50.14304695
H       48.88250013      47.34214190      50.26832540
H       46.72390201      48.46182395      49.99351262
H       46.52792837      50.74388691      49.73612995
H       48.30686773      52.30697974      49.51111737
H       51.19752043      52.65785810      49.60939698
H       53.29538101      51.35953492      49.94909168
H       53.47207163      49.18241737      50.48888263
H       51.49810465      47.70347702      50.36057638
