24
Lattice="100.0 0.0 0.0 0.0 100.0 0.0 0.0 0.0 100.0" Properties=species:S:1:pos:R:3 Energy=-358674.04792600265 Energy_pyscf=-358673.4081490956 pbc="F F F"
N       50.35475195      50.74750997      50.33123900
N       49.55697912      50.01871857      49.66437072
C       48.15214889      50.26911998      49.77598338
C       47.66050508      50.88276524      51.00478306
C       46.30741061      50.83445314      51.27376396
C       45.38490052      50.40992672      50.29505318
C       45.85387973      49.84071596      49.10377032
C       47.19981486      49.89202790      48.80165782
C       51.76923889      50.43235015      50.10719233
C       52.18440993      49.40643710      49.31191323
C       53.53158208      49.04205685      49.30292727
C       54.54744115      49.69315798      49.99357321
C       54.13748620      50.78556395      50.78264858
C       52.81229453      51.05924113      50.90964050
H       48.36975655      51.43145707      51.60520905
H       45.98581695      51.43465484      52.16375278
H       44.41806507      50.09939778      50.61761206
H       45.24311153      49.29337913      48.42790368
H       47.49923818      49.35632464      47.91627552
H       51.45048988      48.91731485      48.71301209
H       53.96219716      48.12567995      48.76551465
H       55.53344681      49.33134707      49.95999733
H       54.71646117      51.20527856      51.55037506
H       52.56916562      51.89787731      51.53767183
