24
Lattice="100.0 0.0 0.0 0.0 100.0 0.0 0.0 0.0 100.0" Properties=species:S:1:pos:R:3 Energy=-358668.67929070466 Energy_pyscf=-358666.84399579 pbc="F F F"
N       50.48106962      50.49951819      50.07029236
N       49.69149898      49.83096529      49.39327336
C       48.30632518      49.99529194      49.65534283
C       47.78001839      50.85437824      50.70675645
C       46.43525316      50.85059579      51.14707105
C       45.52789490      50.11855419      50.34062530
C       46.15500796      49.22638214      49.41511530
C       47.46062512      49.15523257      48.92990392
C       51.82845902      50.10736019      49.97934727
C       52.27719008      49.32777990      48.92315986
C       53.59727923      48.94705460      48.93574870
C       54.35798457      49.26034405      50.02255144
C       54.04435277      50.22566618      51.06734289
C       52.70543293      50.58253471      51.10931966
H       48.48304937      51.62209386      51.04094087
H       46.23094790      51.67486484      51.91064924
H       44.52714039      49.92736930      50.73970261
H       45.36534629      48.61128759      48.83705809
H       47.68653697      48.44836482      48.09864459
H       51.47994744      48.91560210      48.19030650
H       54.09190744      48.35644138      48.18230973
H       55.41323961      48.92343441      49.89533863
H       54.82529432      50.33774605      51.83021896
H       52.28414130      51.30898477      51.84521392
