24
Lattice="100.0 0.0 0.0 0.0 100.0 0.0 0.0 0.0 100.0" Properties=species:S:1:pos:R:3 Energy=-358668.2323950474 Energy_pyscf=-358665.4200005045 pbc="F F F"
N       50.25922106      50.25679045      50.51277303
N       49.49393201      49.47413635      49.76754591
C       48.14671938      49.77334646      50.04929984
C       47.70989959      50.91204202      50.73933034
C       46.42340335      51.25755485      50.83669279
C       45.48907795      50.39738562      50.16522914
C       45.81047632      49.31144211      49.39205073
C       47.23801285      49.00025014      49.33209600
C       51.64753172      49.86317421      50.39900745
C       52.09705161      49.28657027      49.06732376
C       53.46973786      49.26878631      48.85728640
C       54.45321543      49.76972837      49.68620668
C       54.01768345      50.23630876      51.03095755
C       52.63566402      50.33152797      51.31475899
H       48.53963458      51.49586582      51.12777057
H       46.10072730      51.94192017      51.56314398
H       44.47337550      50.74551149      50.25715460
H       45.12057212      48.51493475      49.18632764
H       47.70314524      48.09153163      48.73459449
H       51.34614885      48.79826372      48.45964887
H       53.78325312      48.84206657      47.86483410
H       55.51427695      49.79075801      49.46442269
H       54.78901932      50.65139117      51.64000742
H       52.45426653      50.82382539      52.30578537
