24
Lattice="100.0 0.0 0.0 0.0 100.0 0.0 0.0 0.0 100.0" Properties=species:S:1:pos:R:3 Energy=-358669.187173256 Energy_pyscf=-358664.7421014967 pbc="F F F"
N       50.44023953      49.95322191      50.53819421
N       49.54999953      49.88606676      49.53804232
C       48.21745302      50.15424010      49.78414511
C       47.57327836      50.98525152      50.80427839
C       46.19690138      51.09876202      50.81377654
C       45.36900418      50.58724118      49.85572041
C       45.88378318      49.61100274      48.93799577
C       47.33726432      49.44935372      48.95080097
C       51.83751604      49.89835057      49.97216225
C       52.38622182      49.21843223      48.85693808
C       53.77372182      48.98024167      48.87337811
C       54.61503216      49.77900376      49.61239670
C       54.15717605      50.65482334      50.60785447
C       52.69374775      50.71359876      50.76377611
H       48.20085982      51.58551351      51.53572679
H       45.85600037      51.70125689      51.64747308
H       44.34296068      50.86184467      49.89613356
H       45.33584792      49.04926902      48.20718188
H       47.83277162      48.83186987      48.23403237
H       51.69374998      48.64795087      48.28600443
H       54.28786276      48.33488778      48.10178466
H       55.63452345      49.55328647      49.59178792
H       54.80657485      51.23274141      51.14927633
H       52.27390548      51.28251678      51.66477680
