24
Lattice="100.0 0.0 0.0 0.0 100.0 0.0 0.0 0.0 100.0" Properties=species:S:1:pos:R:3 Energy=-358665.9869410627 Energy_pyscf=-358663.9676937637 pbc="F F F"
N       50.30067591      49.62687274      50.52755579
N       49.55941415      49.05894624      49.68046034
C       48.19288717      49.41170469      50.03535248
C       47.90760912      50.67329957      50.51158285
C       46.60207365      51.17190710      50.41068934
C       45.59755393      50.31006953      50.03353738
C       45.85292472      49.00870065      49.53107164
C       47.16821074      48.64810200      49.48697555
C       51.65745467      49.60611580      50.19628945
C       52.13267427      49.19566367      48.86970656
C       53.54195661      49.36931782      48.68806713
C       54.40422003      49.67029498      49.78454402
C       53.85139555      49.86106532      51.00353142
C       52.53713801      49.76983190      51.32862088
H       48.64660156      51.33784834      50.85035720
H       46.54469353      52.32511288      50.49128993
H       44.64709977      50.67556683      50.19395274
H       44.97480955      48.44054631      49.15326913
H       47.32432338      47.64355009      49.08961809
H       51.45466912      49.12219144      48.04950637
H       54.08351848      49.26175561      47.72883219
H       55.39771290      49.90822875      49.67969220
H       54.48199926      50.20446436      51.74196102
H       52.20774054      50.09326486      52.34037922
