24
Lattice="100.0 0.0 0.0 0.0 100.0 0.0 0.0 0.0 100.0" Properties=species:S:1:pos:R:3 Energy=-358678.03933800745 Energy_pyscf=-358677.6512708726 pbc="F F F"
N       50.44968181      50.22544221      50.39264375
N       49.59748466      49.78886668      49.52371250
C       48.24219199      50.04759091      49.76174501
C       47.65733077      50.95726468      50.75541761
C       46.25497304      51.12552063      50.82804268
C       45.36045008      50.48424415      49.89837912
C       45.93450838      49.60129499      48.95779146
C       47.36556474      49.42726147      48.89025462
C       51.75552625      50.03567695      49.98215734
C       52.36387120      49.26351169      48.94066966
C       53.72828177      49.05075151      48.82735484
C       54.58151200      49.81689285      49.57274486
C       54.09188493      50.65540235      50.58342216
C       52.70022100      50.72498969      50.85392759
H       48.25819072      51.45776384      51.42346618
H       46.00268865      51.69633755      51.69383982
H       44.38640381      50.92376697      49.82268617
H       45.36680607      49.08243062      48.22111085
H       47.75624929      48.71853841      48.23509287
H       51.56813548      48.70669626      48.31914205
H       54.13877249      48.28209173      48.12971748
H       55.68294071      49.55460971      49.65798684
H       54.81693022      51.12522126      51.16127674
H       52.28489110      51.30717415      51.76257621
