24
Lattice="100.0 0.0 0.0 0.0 100.0 0.0 0.0 0.0 100.0" Properties=species:S:1:pos:R:3 Energy=-358671.0624334939 Energy_pyscf=-358670.0918324129 pbc="F F F"
N       50.23441734      49.71655375      49.28942889
N       49.49405176      50.01937179      50.26772398
C       48.11835510      50.13731510      50.05422643
C       47.47521505      51.06720250      50.92017699
C       46.03915738      50.93872353      51.10943152
C       45.36589269      49.93316979      50.34270775
C       46.03234341      49.18312540      49.39571669
C       47.38606433      49.23298879      49.15940724
C       51.64975020      49.67813930      49.59324434
C       52.51524348      48.92992950      48.82966578
C       53.86510182      48.86070308      49.13942518
C       54.46354700      49.57482265      50.18320688
C       53.56096180      50.23432003      51.01983200
C       52.16605598      50.27547718      50.78104513
H       48.02084818      51.84833067      51.43676559
H       45.45006233      51.39597144      51.84014777
H       44.46703321      49.56853174      50.68203355
H       45.42488549      48.43223476      48.72686879
H       48.03204427      48.58606792      48.59385628
H       52.20930089      48.44064485      47.94914435
H       54.52635317      48.17235767      48.46618886
H       55.48933789      49.66556448      50.20631400
H       53.69840577      50.78666747      51.95668312
H       51.47691842      50.78663823      51.50348597
