24
Lattice="100.0 0.0 0.0 0.0 100.0 0.0 0.0 0.0 100.0" Properties=species:S:1:pos:R:3 Energy=-358678.07127851195 Energy_pyscf=-358676.73912855977 pbc="F F F"
N       50.38966619      50.14876546      50.45668082
N       49.54857491      49.78904274      49.59762518
C       48.18022063      50.09036450      49.76426790
C       47.69964854      50.94359975      50.74719219
C       46.30825754      51.14819524      50.84996509
C       45.45728144      50.49707990      49.90496820
C       45.94068134      49.55663499      48.90915133
C       47.32797706      49.41537597      48.83080664
C       51.79250166      50.10660271      49.97793054
C       52.24943870      49.28893520      48.88848716
C       53.64353419      49.04904986      48.82162011
C       54.58549843      49.82146920      49.54525978
C       54.09607796      50.66398274      50.63448419
C       52.72970106      50.75899290      50.85785388
H       48.49931631      51.49646935      51.41789299
H       45.91842683      51.73132928      51.71965288
H       44.44882887      50.92149356      49.85283835
H       45.28998030      49.06688343      48.16266154
H       47.74692780      48.68004953      48.24430382
H       51.61156985      48.61035642      48.27036888
H       54.20339635      48.32143855      48.21495736
H       55.63004911      49.54768189      49.64262200
H       54.81009473      51.15678518      51.22316657
H       52.24122895      51.28138092      51.72838711
