24
Lattice="100.0 0.0 0.0 0.0 100.0 0.0 0.0 0.0 100.0" Properties=species:S:1:pos:R:3 Energy=-358669.8557923636 Energy_pyscf=-358669.4929528043 pbc="F F F"
N       50.26180546      49.63620907      50.58473190
N       49.47737477      49.12044898      49.70568649
C       48.20618197      49.49221523      49.91482440
C       47.90953647      50.71160234      50.49767083
C       46.57509286      51.18168521      50.47571860
C       45.61938556      50.29894856      49.95683673
C       45.89646058      49.07726661      49.53145002
C       47.21477007      48.61812094      49.51695065
C       51.61243036      49.45214591      50.22644105
C       52.12044525      49.19309453      48.92309053
C       53.51069700      49.40702035      48.68719817
C       54.36545566      49.70727236      49.73418008
C       53.91214776      49.88929637      51.03069649
C       52.54406539      49.79616793      51.22573599
H       48.75883880      51.28820902      50.80195172
H       46.54414734      52.33091148      50.61862622
H       44.61365091      50.65373215      50.10110579
H       44.98263913      48.36695794      49.18477842
H       47.33570893      47.62722410      49.11994274
H       51.40057237      49.14895594      48.07161532
H       54.05872131      49.25810894      47.77672343
H       55.47835542      49.84939747      49.70449397
H       54.54862009      50.28415480      51.79431350
H       52.09953273      49.99052390      52.17179978
