24
Lattice="100.0 0.0 0.0 0.0 100.0 0.0 0.0 0.0 100.0" Properties=species:S:1:pos:R:3 Energy=-358667.8464489428 Energy_pyscf=-358663.01748878433 pbc="F F F"
N       50.28778206      50.70526696      50.37588895
N       49.56991873      50.09865773      49.53076577
C       48.26430780      50.25662766      49.74150742
C       47.72666583      50.75429794      50.94698505
C       46.42520288      50.91923863      51.31938748
C       45.57588576      50.26302036      50.45767639
C       45.98970869      49.85135062      49.13816831
C       47.37436578      49.81233032      48.69407466
C       51.66839780      50.43994854      50.08638819
C       52.10674196      49.32071404      49.28974592
C       53.47669555      48.95352698      49.31524664
C       54.47026581      49.67605182      50.03195118
C       53.98900458      50.76185338      50.82365108
C       52.62094233      51.16206200      50.90228372
H       48.22684440      51.38898279      51.64167397
H       46.19160566      51.51464793      52.25970216
H       44.55447050      50.23352141      50.70848706
H       45.28644956      49.30551167      48.38888827
H       47.74693143      49.42853850      47.77857309
H       51.41559561      48.84659037      48.69918758
H       53.72824647      48.08334986      48.72850747
H       55.58114562      49.42155778      49.94930444
H       54.68329370      51.27206372      51.53638692
H       52.24800595      51.93279851      51.57491032
