24
Lattice="100.0 0.0 0.0 0.0 100.0 0.0 0.0 0.0 100.0" Properties=species:S:1:pos:R:3 Energy=-358662.0251719222 Energy_pyscf=-358657.38027761056 pbc="F F F"
N       50.49149948      50.22925965      50.69795955
N       49.69695936      49.45889297      50.10768514
C       48.34849324      49.92065980      50.02897662
C       47.79887063      50.89014460      50.82012331
C       46.42413049      51.14184317      50.68987144
C       45.56580254      50.30234156      49.95524516
C       46.09298060      49.04079022      49.42180028
C       47.44620779      48.92038054      49.54854279
C       51.85899082      50.00418760      50.31316822
C       52.27777998      49.50674585      48.97111934
C       53.61757688      49.25447340      48.62472778
C       54.48692292      49.58094116      49.72759066
C       54.13998266      49.88782091      51.02513091
C       52.78711092      50.16176523      51.27754010
H       48.31683585      51.49610257      51.53887410
H       45.97606538      52.06560549      51.15411250
H       44.47358812      50.36503032      50.02956556
H       45.48012636      48.37896166      48.78555985
H       47.88012280      47.99653260      49.24830265
H       51.47331119      49.38361776      48.19134379
H       53.97987848      48.71204809      47.73416978
H       55.61088558      49.33700020      49.57192536
H       54.97730027      50.01911096      51.70867096
H       52.21897736      50.16073595      52.14027465
