24
Lattice="100.0 0.0 0.0 0.0 100.0 0.0 0.0 0.0 100.0" Properties=species:S:1:pos:R:3 Energy=-358662.24529639736 Energy_pyscf=-358662.4116057174 pbc="F F F"
N       50.35498563      50.15968687      49.21289623
N       49.65629060      50.21294153      50.22519781
C       48.23283273      50.34696131      50.11559725
C       47.47156418      50.78961589      51.29639858
C       46.10738265      51.01708543      51.18978089
C       45.54663318      50.71423051      49.96526747
C       46.22027726      50.18365071      48.87420537
C       47.66312523      50.09245439      48.94065955
C       51.78856064      50.08306488      49.51401385
C       52.49476148      48.94584858      49.22763786
C       53.90251076      49.01932692      49.34725450
C       54.53639665      50.15778771      49.95304937
C       53.66795672      51.17359343      50.54561584
C       52.31881385      51.12362170      50.29042380
H       48.00877053      51.08416130      52.21712033
H       45.63845827      51.60479736      52.07296737
H       44.44670496      50.64452109      50.04421492
H       45.68317893      49.93557778      47.90888233
H       48.32339073      49.93744558      47.97147223
H       52.17639682      48.18247885      48.60597748
H       54.38359121      48.18521807      48.87275986
H       55.55464535      50.17397907      49.78789970
H       54.18113445      51.97057255      51.10669014
H       51.66222040      51.93067832      50.58502318
