24
Lattice="100.0 0.0 0.0 0.0 100.0 0.0 0.0 0.0 100.0" Properties=species:S:1:pos:R:3 Energy=-358663.14473985235 Energy_pyscf=-358662.6692060361 pbc="F F F"
N       50.54039340      50.56910740      50.20781506
N       49.74773145      49.85458413      49.51837418
C       48.38385789      50.15488757      49.81662634
C       47.89690555      51.03542253      50.78336818
C       46.43644870      51.07481369      50.88710268
C       45.52686104      50.14118213      50.16878593
C       46.09166816      49.51965207      49.04885851
C       47.49694690      49.39249961      48.96471662
C       51.88850639      50.27009286      49.89121095
C       52.27895392      49.26623966      48.89352114
C       53.65029738      48.99798441      48.77884131
C       54.56255656      49.68338028      49.69149341
C       54.23973978      50.42500141      50.81318485
C       52.78539087      50.66887279      50.87330202
H       48.50644302      51.63284824      51.42001985
H       46.15331242      51.60266359      51.78772527
H       44.50391087      50.33810239      50.08227416
H       45.58868124      49.01608347      48.19802497
H       48.05205181      48.69400665      48.16308428
H       51.48448010      48.91572283      48.18007570
H       54.17386291      48.30158224      48.09189955
H       55.55659800      49.25310020      49.60277809
H       54.90219014      50.85519529      51.56403881
H       52.50126173      51.22813853      51.72558732
