24
Lattice="100.0 0.0 0.0 0.0 100.0 0.0 0.0 0.0 100.0" Properties=species:S:1:pos:R:3 Energy=-358657.60314162244 Energy_pyscf=-358656.09636465093 pbc="F F F"
N       50.39354363      49.99546295      50.40573784
N       49.67121569      49.34787248      49.60525540
C       48.25906423      49.67351906      49.91908456
C       47.85927767      51.00520464      50.21095016
C       46.52357570      51.27094663      50.53704873
C       45.53767090      50.23561807      50.23485980
C       46.04140394      49.05006591      49.81888624
C       47.33506417      48.72594117      49.54067786
C       51.69512019      49.89416332      50.05791788
C       52.28554972      49.72641336      48.73373254
C       53.70180861      49.51646534      48.72458382
C       54.48185706      49.53952668      49.91244463
C       53.88837066      49.83618531      51.09477577
C       52.51340220      49.85682859      51.26415377
H       48.73691535      51.66798403      50.08254453
H       46.25370765      52.30958551      50.69353216
H       44.47957634      50.45029821      50.48441604
H       45.32274449      48.15095913      49.47644558
H       47.55467358      47.78238010      49.08067118
H       51.68732907      49.90607143      47.88012050
H       54.18269173      49.51438509      47.70476710
H       55.47712943      49.18655390      49.85107651
H       54.44185795      49.60840678      51.89527832
H       51.94740477      50.08158779      52.17540956
