24
Lattice="100.0 0.0 0.0 0.0 100.0 0.0 0.0 0.0 100.0" Properties=species:S:1:pos:R:3 Energy=-358663.76006768574 Energy_pyscf=-358660.4068528355 pbc="F F F"
N       50.37463798      49.31492410      50.31803748
N       49.62206201      50.33611225      50.14674275
C       48.16445798      50.12887371      50.14971739
C       47.34762695      50.98456789      50.87179681
C       45.95711486      50.99560171      50.74206880
C       45.32370629      50.03324200      49.97051143
C       46.11762381      49.00224340      49.47490657
C       47.52002588      48.96969965      49.54508765
C       51.81490238      49.42276921      50.15945015
C       52.53582637      48.96339387      48.97150138
C       53.86095118      49.18978164      48.76713543
C       54.62767161      49.73255587      49.83391081
C       53.93646840      50.07141459      51.01243315
C       52.61494755      49.79905918      51.26737859
H       47.89418435      51.76208354      51.41166735
H       45.33650036      51.75037385      51.28643277
H       44.32333574      50.01344624      49.50730980
H       45.59164389      48.13480054      49.01540902
H       48.13487658      48.33158151      49.08324081
H       51.92755682      48.60001375      48.20765249
H       54.37617635      48.99058762      47.84288052
H       55.66278652      50.04677422      49.85258935
H       54.59409070      50.58257231      51.64339116
H       52.01546356      50.26694015      52.07717690
