24
Lattice="100.0 0.0 0.0 0.0 100.0 0.0 0.0 0.0 100.0" Properties=species:S:1:pos:R:3 Energy=-358663.5550346064 Energy_pyscf=-358667.48536478716 pbc="F F F"
N       50.47234738      50.11835003      50.71983276
N       49.75377664      49.46856090      49.95199844
C       48.32530776      49.84531163      50.10395415
C       47.82373067      50.89781166      50.76741528
C       46.43221533      51.10932501      50.69070412
C       45.51867269      50.27262661      49.98648564
C       46.08113058      49.11761561      49.41033301
C       47.47310004      48.88471204      49.45328502
C       51.81144176      49.89391424      50.32715240
C       52.21112150      49.47055459      49.07520207
C       53.59184351      49.20111992      48.69771381
C       54.57618154      49.65800222      49.62799872
C       54.14165251      50.08327536      50.94976710
C       52.81283686      50.09754230      51.30075638
H       48.25081176      51.56433315      51.51937137
H       46.08501694      52.06358030      51.19863299
H       44.41764040      50.32478860      49.95799590
H       45.46556478      48.44949730      48.87249868
H       47.87828308      48.02001011      48.95440775
H       51.35314131      49.26208021      48.31978955
H       53.89865615      48.83508066      47.76231781
H       55.54460675      49.23809878      49.51599963
H       54.94671866      49.91700685      51.76363575
H       52.55205189      50.43670859      52.37509972
