24
Lattice="100.0 0.0 0.0 0.0 100.0 0.0 0.0 0.0 100.0" Properties=species:S:1:pos:R:3 Energy=-358669.89215842704 Energy_pyscf=-358658.3610515444 pbc="F F F"
N       50.30459456      50.19009063      50.68316059
N       49.45154677      49.31018260      50.17586793
C       48.22253222      49.73137967      49.87132180
C       47.82214788      50.87929397      50.63177565
C       46.47025090      51.18592088      50.71007842
C       45.49078869      50.40056304      50.14096984
C       45.84459299      49.26289405      49.39393287
C       47.21401982      49.01844194      49.24536861
C       51.68789430      49.95302379      50.37559606
C       52.00794087      49.38945786      49.11533886
C       53.38397209      49.30818800      48.84473632
C       54.37089157      49.74938826      49.73455087
C       54.07084071      50.22019341      51.00457615
C       52.76262730      50.29199728      51.38368162
H       48.59019307      51.53663277      51.10810480
H       46.38088596      51.91164005      51.58003013
H       44.47314412      50.72549384      50.20574327
H       45.10630696      48.48349581      49.19679953
H       47.46936886      48.09983472      48.72345034
H       51.24700876      49.00241387      48.39627410
H       53.72664248      48.85303502      47.91896290
H       55.41791549      49.81854969      49.43515716
H       54.75817141      50.64521619      51.65043580
H       52.47960151      50.84965030      52.27682249
