24
Lattice="100.0 0.0 0.0 0.0 100.0 0.0 0.0 0.0 100.0" Properties=species:S:1:pos:R:3 Energy=-358661.2696617686 Energy_pyscf=-358656.5383309005 pbc="F F F"
N       50.22453606      50.17214876      50.72134874
N       49.59112323      49.41778450      50.03407521
C       48.17152545      49.81071909      49.85735623
C       47.72263732      50.88447259      50.73498221
C       46.37766130      51.15528264      50.80243433
C       45.39419861      50.36734728      50.15178275
C       45.85731670      49.19368016      49.44942358
C       47.24190434      48.99863505      49.19990369
C       51.66460963      49.90141436      50.42202147
C       52.08693428      49.34733500      49.17439691
C       53.49517734      49.26041388      48.79830537
C       54.50619769      49.81577041      49.61495739
C       54.01541575      50.16942247      50.96934227
C       52.67704793      50.25311586      51.39371863
H       48.52344950      51.59372602      51.10740980
H       46.20839990      51.96879067      51.55868936
H       44.41087356      50.77853593      50.18588861
H       45.13051928      48.56557289      49.16991288
H       47.55801688      48.09845915      48.65847481
H       51.23313071      48.91030555      48.57942321
H       53.75692172      48.81535498      47.77409640
H       55.55910035      49.84380794      49.45688757
H       54.84029474      50.61210855      51.60188401
H       52.46154217      50.86736269      52.27283474
