24
Lattice="100.0 0.0 0.0 0.0 100.0 0.0 0.0 0.0 100.0" Properties=species:S:1:pos:R:3 Energy=-358674.2257404494 Energy_pyscf=-358671.89262493124 pbc="F F F"
N       50.26938269      49.29701183      50.33400735
N       49.61069533      50.38881530      50.29277799
C       48.20978985      50.08838285      50.27547277
C       47.34657459      51.07352769      50.80992047
C       45.96996733      51.02056951      50.72337133
C       45.38552032      49.97816317      49.95649135
C       46.20189367      48.89265395      49.46993026
C       47.62912454      48.96661771      49.67372734
C       51.70830703      49.37666703      50.13472557
C       52.38969266      49.16937510      48.88913438
C       53.79461977      49.13754778      48.80642328
C       54.57295979      49.74358346      49.86908832
C       53.84931733      50.07488720      51.03851176
C       52.49026449      49.87929061      51.22916324
H       47.95327160      51.92714711      51.19967624
H       45.33858257      51.78515535      51.28455990
H       44.36256960      50.05881341      49.55434885
H       45.78950825      48.01259484      48.99659859
H       48.24515652      48.28654804      49.09996757
H       51.99424108      48.65594050      47.97602327
H       54.26318819      48.97284168      47.82392106
H       55.67661662      49.97847749      49.75927247
H       54.53714698      50.59279546      51.72675162
H       52.06033122      50.01324464      52.24298126
