24
Lattice="100.0 0.0 0.0 0.0 100.0 0.0 0.0 0.0 100.0" Properties=species:S:1:pos:R:3 Energy=-358676.4788874259 Energy_pyscf=-358674.3979647801 pbc="F F F"
N       50.30828260      50.07391589      50.61645917
N       49.54567216      49.46019406      49.85571806
C       48.19183523      49.83819919      49.90246021
C       47.83788057      50.85509692      50.73025524
C       46.51515187      51.14579482      50.80951810
C       45.53549509      50.41686941      50.10922864
C       45.88476172      49.29612038      49.42282206
C       47.23055906      49.06206316      49.21735836
C       51.76622006      49.76150629      50.40826442
C       52.11976078      49.22279799      49.17481076
C       53.42659171      49.25087291      48.81043202
C       54.42377602      49.87198933      49.63989493
C       54.01021606      50.23718536      50.95529905
C       52.67869037      50.32793692      51.32213632
H       48.54982272      51.51327459      51.24014646
H       46.15904084      51.94626107      51.51495255
H       44.49830628      50.69361776      50.25643944
H       45.16245125      48.56215649      49.19551747
H       47.63444927      48.12967230      48.73435632
H       51.17469692      48.94568134      48.65524365
H       53.64696362      48.81756493      47.83584238
H       55.50473688      49.84028703      49.58977362
H       54.76032939      50.61957944      51.59794162
H       52.19482099      50.89497703      52.12157204
