24
Lattice="100.0 0.0 0.0 0.0 100.0 0.0 0.0 0.0 100.0" Properties=species:S:1:pos:R:3 Energy=-358672.88439557765 Energy_pyscf=-358673.25932590803 pbc="F F F"
N       50.62981576      50.70507246      50.01113264
N       49.72415513      49.87675148      49.61513283
C       48.36451065      50.19776967      49.74596810
C       47.76689141      50.94456330      50.83392064
C       46.37403248      50.94266954      50.87330624
C       45.48841963      50.26486398      50.05450155
C       46.11816689      49.51439741      48.97376476
C       47.52871536      49.38493209      48.93983511
C       51.99429428      50.19224273      49.89474254
C       52.37397479      49.38124312      48.86886656
C       53.68544633      49.00280745      48.80638082
C       54.64282465      49.57954453      49.75829109
C       54.23525757      50.44201702      50.82273295
C       52.86062401      50.63749365      50.91328447
H       48.32772634      51.82006529      51.42406992
H       46.11363116      51.46703757      51.82907840
H       44.38430840      50.39118761      50.14904279
H       45.49727559      49.03088229      48.24321956
H       48.01019812      48.59683149      48.28524020
H       51.58074203      48.88424293      48.17964940
H       54.08795911      48.29851044      48.06185619
H       55.64188395      49.24500016      49.57213455
H       55.01027394      50.84065049      51.51512072
H       52.52342857      51.22640270      51.78792459
