24
Lattice="100.0 0.0 0.0 0.0 100.0 0.0 0.0 0.0 100.0" Properties=species:S:1:pos:R:3 Energy=-358670.2627094507 Energy_pyscf=-358668.9408748148 pbc="F F F"
N       50.34284029      49.97315894      50.62953838
N       49.65517838      49.38241324      49.79494326
C       48.32338621      49.72844427      49.94247604
C       47.85274153      50.90460186      50.47519931
C       46.50756339      51.22336957      50.40433321
C       45.54872002      50.36864996      49.97831354
C       45.98758165      49.12270537      49.51244724
C       47.35702276      48.79550176      49.57897723
C       51.65704530      49.72400572      50.32129996
C       52.12155150      49.47407526      49.02514071
C       53.41763402      49.43850920      48.75250761
C       54.45035299      49.65705458      49.67617685
C       54.04462572      49.83099835      50.97480128
C       52.64031329      49.91236696      51.30780378
H       48.53744941      51.63513158      50.82576379
H       46.27364969      52.18099942      50.76834866
H       44.43487451      50.55425293      50.04738209
H       45.11482315      48.44435903      49.47767106
H       47.63291017      47.80096052      49.22005947
H       51.31798583      49.29667011      48.24581476
H       53.69600812      49.51365364      47.63720867
H       55.57662426      49.81826295      49.32320345
H       54.68195415      50.06178495      51.76033142
H       52.41151754      50.23121781      52.35095555
