24
Lattice="100.0 0.0 0.0 0.0 100.0 0.0 0.0 0.0 100.0" Properties=species:S:1:pos:R:3 Energy=-358678.62042863463 Energy_pyscf=-358677.5841193997 pbc="F F F"
N       50.25874767      50.13206551      50.54283593
N       49.53087166      49.37178446      49.88076505
C       48.17346933      49.85110895      49.86524447
C       47.77260103      50.88500151      50.71446060
C       46.44741132      51.14330960      50.79013552
C       45.46780157      50.39450336      50.15659642
C       45.80045203      49.27633222      49.41838436
C       47.20056334      49.07667140      49.22830589
C       51.68525745      49.89929366      50.42587654
C       52.12556520      49.24713915      49.25160764
C       53.45330778      49.26273730      48.78007222
C       54.47733789      49.79982513      49.65930292
C       54.00035588      50.23561741      50.98716540
C       52.65098611      50.32777885      51.32254548
H       48.54788415      51.45883296      51.20245350
H       46.20191677      51.92585113      51.54679961
H       44.46007120      50.77653762      50.24004278
H       45.13873458      48.52980388      49.19042421
H       47.56848715      48.15439936      48.78792478
H       51.31771694      48.89203352      48.63365194
H       53.71314917      48.80030357      47.77622150
H       55.57179933      49.84900348      49.53949586
H       54.78269777      50.62918636      51.60380530
H       52.35699637      50.86462301      52.22505448
