24
Lattice="100.0 0.0 0.0 0.0 100.0 0.0 0.0 0.0 100.0" Properties=species:S:1:pos:R:3 Energy=-358677.9961260239 Energy_pyscf=-358676.9801332593 pbc="F F F"
N       50.49594159      50.14209346      50.63415184
N       49.67149647      49.50686116      49.98422980
C       48.34855157      49.80229396      50.10910765
C       47.74251334      50.91659211      50.77342053
C       46.33300888      51.09335495      50.63679975
C       45.51599596      50.30722781      49.97605790
C       46.06165375      49.11409313      49.42300170
C       47.42092119      48.93855288      49.48758050
C       51.85610770      49.95303596      50.26164122
C       52.27822826      49.56362658      48.99783382
C       53.64443820      49.21054873      48.73155747
C       54.55303441      49.51045907      49.69968695
C       54.16694365      49.93799416      50.96854362
C       52.80569781      50.09416714      51.27289720
H       48.24250615      51.60280319      51.54466187
H       46.03754104      51.99905530      51.19801912
H       44.41006976      50.36125790      49.97477130
H       45.54506801      48.36394820      48.83651377
H       47.87478914      48.07649733      49.10716245
H       51.38812917      49.27511519      48.35645140
H       53.93924425      48.83465221      47.77885639
H       55.58141199      49.30873880      49.56333409
H       54.96662183      50.01476945      51.68950148
H       52.58491615      50.29292762      52.31672586
