24
Lattice="100.0 0.0 0.0 0.0 100.0 0.0 0.0 0.0 100.0" Properties=species:S:1:pos:R:3 Energy=-358670.95952548494 Energy_pyscf=-358667.16494342306 pbc="F F F"
N       50.23402156      49.55298569      50.45438551
N       49.43183171      48.77906215      49.89787401
C       48.18311859      49.40003304      49.97619187
C       47.88915525      50.67001399      50.40252186
C       46.58667602      51.13609791      50.44164949
C       45.55527587      50.34522000      50.08055912
C       45.81168605      49.11260764      49.41828648
C       47.10256811      48.68720222      49.54934128
C       51.62840446      49.46177756      50.20852272
C       52.18043470      49.35634770      48.89619805
C       53.53817706      49.40146080      48.76458956
C       54.43968464      49.75860630      49.74644391
C       53.94023427      49.92647356      51.06616790
C       52.57400759      49.75270451      51.26313745
H       48.82146449      51.32270315      50.68376876
H       46.43288887      52.30431802      50.46638202
H       44.51456949      50.68189138      50.19135473
H       45.01444541      48.40182589      49.18933516
H       47.37885792      47.77692469      49.09127645
H       51.41065142      49.25817525      48.13468600
H       53.96335573      49.20568196      47.76830772
H       55.54275556      49.83035006      49.60666015
H       54.63891468      50.28050814      51.85732560
H       52.27480969      49.99896725      52.29021428
