24
Lattice="100.0 0.0 0.0 0.0 100.0 0.0 0.0 0.0 100.0" Properties=species:S:1:pos:R:3 Energy=-358674.29873040674 Energy_pyscf=-358671.0009169559 pbc="F F F"
N       50.35893381      50.03596661      49.38266566
N       49.56605819      50.21766750      50.32104981
C       48.24246364      50.38977118      50.09411300
C       47.54789121      50.86980309      51.23581532
C       46.10344734      50.96358996      51.19263142
C       45.44684391      50.68243234      49.95829021
C       46.08485219      50.15664564      48.88835724
C       47.47805354      50.08773677      48.82182718
C       51.81260254      50.06275308      49.67451179
C       52.58271813      49.03775626      49.14461301
C       53.91348310      49.05188322      49.34790433
C       54.61748141      50.11092850      49.98154319
C       53.88399524      51.14966027      50.52169147
C       52.42968565      51.12449328      50.36354091
H       48.12381835      51.12304811      52.13377648
H       45.69125478      51.59848759      52.07336500
H       44.37269118      50.68005788      49.93868976
H       45.54195960      49.92113966      47.89542662
H       47.88548960      49.83083585      47.84524670
H       52.15636180      48.19418851      48.60034187
H       54.42535526      48.20775181      48.81586140
H       55.70620886      50.26593510      49.87306930
H       54.32570349      51.98140457      51.09547405
H       51.69752789      51.81577329      50.69838670
