24
Lattice="100.0 0.0 0.0 0.0 100.0 0.0 0.0 0.0 100.0" Properties=species:S:1:pos:R:3 Energy=-358678.06279829436 Energy_pyscf=-358672.6719744418 pbc="F F F"
N       50.56110273      50.66251430      49.98908487
N       49.73310495      49.79668102      49.65308641
C       48.31999661      50.14306806      49.74204255
C       47.76539738      51.00386989      50.75053216
C       46.40560325      51.12958262      50.86186678
C       45.53116717      50.26031400      50.13438850
C       46.14253529      49.52914160      49.06447262
C       47.52062883      49.40703405      48.90263392
C       51.96778083      50.19668846      49.93552426
C       52.32845001      49.36489419      48.84623653
C       53.67622663      48.96718057      48.82203149
C       54.57380035      49.55640418      49.74782108
C       54.25131661      50.44888708      50.80598862
C       52.86573805      50.56970075      50.96363784
H       48.36138548      51.52720437      51.36437106
H       45.98688395      51.50550066      51.76959317
H       44.41458111      50.37865088      50.15914824
H       45.58655964      49.01893713      48.30435151
H       48.04231787      48.65717309      48.32924677
H       51.60852309      49.09217742      48.11535523
H       54.14707680      48.32333945      48.07814501
H       55.64564712      49.26873197      49.60432540
H       55.04904017      50.81016167      51.48185849
H       52.50834973      51.31223611      51.67967863
