24
Lattice="100.0 0.0 0.0 0.0 100.0 0.0 0.0 0.0 100.0" Properties=species:S:1:pos:R:3 Energy=-358664.6233541968 Energy_pyscf=-358664.89975589485 pbc="F F F"
N       50.47202687      50.59102408      50.13706939
N       49.77846615      49.70564849      49.57211340
C       48.37282922      49.97098427      49.75411319
C       47.88851371      50.90777789      50.65434077
C       46.61234774      50.81819076      51.05841435
C       45.65540769      50.04138356      50.42426591
C       46.10980138      49.23981814      49.36915947
C       47.44850610      49.10816014      49.07402904
C       51.82479787      50.17193493      50.03093559
C       52.25719527      49.39287929      48.90359574
C       53.54280129      48.96698189      48.94028351
C       54.38749564      49.20659013      50.04654187
C       53.95890805      50.09037736      51.04380782
C       52.59528249      50.50668926      51.13279632
H       48.50155534      51.72913528      51.01675105
H       46.20092469      51.46003798      51.73041687
H       44.57442541      50.03622093      50.60328019
H       45.24930611      48.62075044      49.01016111
H       47.74180009      48.48902424      48.11984892
H       51.46197450      49.14399301      48.15113795
H       54.16459238      48.35466770      48.20936840
H       55.43862298      48.85014490      49.88305901
H       54.71245966      50.43664213      51.67084472
H       52.11478792      51.21783444      51.80454376
