24
Lattice="100.0 0.0 0.0 0.0 100.0 0.0 0.0 0.0 100.0" Properties=species:S:1:pos:R:3 Energy=-358671.09765866987 Energy_pyscf=-358669.0465141869 pbc="F F F"
N       50.46867730      49.98891646      50.41869227
N       49.61332013      49.92558339      49.47918120
C       48.28059132      50.04127816      49.78404032
C       47.68946647      50.95655390      50.67246060
C       46.27888226      51.10617021      50.79908362
C       45.38973327      50.53124433      49.88847794
C       45.95556134      49.62958536      48.99655482
C       47.30625396      49.48948609      48.91376759
C       51.83703402      50.05483220      50.01843467
C       52.36261039      49.16337354      48.92329727
C       53.72556307      49.10680744      48.77849824
C       54.64552525      49.88848590      49.60013646
C       54.08796897      50.66251096      50.57909869
C       52.66936121      50.67904785      50.91626127
H       48.20561118      51.52707834      51.40750755
H       46.03184059      51.70092250      51.72562144
H       44.32037275      50.82752366      49.81192804
H       45.34893111      49.09056656      48.22612251
H       47.72349235      48.70120603      48.26782022
H       51.66729237      48.64163152      48.32536780
H       54.06256633      48.31199937      48.18594836
H       55.66540704      49.57779425      49.60123578
H       54.82750071      51.09059649      51.18227916
H       52.21647441      51.33411375      51.71571004
