24
Lattice="100.0 0.0 0.0 0.0 100.0 0.0 0.0 0.0 100.0" Properties=species:S:1:pos:R:3 Energy=-358675.25005678565 Energy_pyscf=-358667.36880742083 pbc="F F F"
N       50.45591431      49.62667195      49.15722402
N       49.81908816      50.57575740      49.81640755
C       48.39158775      50.37855826      49.82577925
C       47.67053801      51.13907150      50.81126359
C       46.34201021      50.85466813      51.16478492
C       45.60026477      49.95934055      50.42834093
C       46.33175820      49.23369864      49.46036337
C       47.69803198      49.37883688      49.14810436
C       51.79285402      49.49212334      49.64228577
C       52.81439772      48.83317161      48.80706597
C       54.17691605      49.00864815      49.01977457
C       54.58637968      49.73114900      50.15709688
C       53.67479535      50.34286299      51.05297180
C       52.28597692      50.30383372      50.69995718
H       48.16701829      51.93744447      51.38475133
H       45.91591197      51.40537626      51.98644372
H       44.47179448      50.11269129      50.41411304
H       45.94082959      48.31411784      49.03152588
H       48.09587711      48.69997378      48.48111944
H       52.38070245      48.16250006      47.97942260
H       54.99189663      48.57363479      48.26804416
H       55.66385072      49.90105923      50.46283321
H       54.17550167      50.86784995      51.92986858
H       51.58356277      50.85756635      51.25121239
