24
Lattice="100.0 0.0 0.0 0.0 100.0 0.0 0.0 0.0 100.0" Properties=species:S:1:pos:R:3 Energy=-358651.2341458853 Energy_pyscf=-358651.714288035 pbc="F F F"
N       50.49597673      50.16894498      50.61766646
N       49.74087261      49.52486507      49.92072720
C       48.31870720      49.81992330      50.02433253
C       47.80040640      50.93447308      50.75924668
C       46.44881271      51.12074855      50.64436501
C       45.56719606      50.35316900      49.96315523
C       46.02016123      49.14164416      49.47146089
C       47.42655511      48.93422853      49.52787651
C       51.90122054      50.07569254      50.27524275
C       52.23582772      49.57794988      48.99850730
C       53.60807398      49.17693434      48.77319759
C       54.58690236      49.55420919      49.69545170
C       54.21407913      50.02621778      50.96864907
C       52.78729028      50.08726861      51.40281992
H       48.39823496      51.39197802      51.49702365
H       45.92618921      51.98532919      51.18719417
H       44.42175576      50.25326304      49.98751809
H       45.42275092      48.47138254      48.79610445
H       47.88088061      47.95113658      49.10184447
H       51.41054175      49.26532032      48.44512899
H       53.81839128      48.82268862      47.71185402
H       55.61980824      49.24913536      49.49426233
H       54.91192993      49.93935029      51.71023254
H       52.46318051      50.35242934      52.36509457
