24
Lattice="100.0 0.0 0.0 0.0 100.0 0.0 0.0 0.0 100.0" Properties=species:S:1:pos:R:3 Energy=-358677.36233919923 Energy_pyscf=-358680.4421736614 pbc="F F F"
N       50.34244861      50.03778710      49.38206116
N       49.66676565      50.30842163      50.40355149
C       48.25553950      50.40807070      50.16114003
C       47.47826130      50.86703355      51.28033267
C       46.12190511      51.02432483      51.18367722
C       45.50323320      50.69433430      49.93766026
C       46.24700818      50.17863970      48.89155133
C       47.69104597      50.04797986      48.91917602
C       51.70044002      50.08886185      49.47735207
C       52.54260945      49.05665759      49.03237948
C       53.90560658      49.07420176      49.21369830
C       54.53806852      50.13054159      49.97807001
C       53.68013801      51.13285061      50.49114805
C       52.31657479      51.10043015      50.32629160
H       48.00974774      51.04467840      52.20316121
H       45.57086191      51.60265752      51.91938642
H       44.41029199      50.60836614      49.99318343
H       45.68778273      49.95286442      47.98642618
H       48.28964188      49.81976914      48.00499095
H       52.15453448      48.16198196      48.62545952
H       54.37698390      48.14020855      48.86531601
H       55.60930230      50.18142514      49.80272800
H       54.16253361      51.88398136      51.16227922
H       51.73184870      51.99557603      50.66586636
