24
Lattice="100.0 0.0 0.0 0.0 100.0 0.0 0.0 0.0 100.0" Properties=species:S:1:pos:R:3 Energy=-358673.29785926844 Energy_pyscf=-358671.8304190693 pbc="F F F"
N       50.37752939      50.65216483      50.29743414
N       49.57094478      50.21469919      49.45188380
C       48.15054472      50.31082177      49.87158406
C       47.77502458      51.03228836      50.95772099
C       46.37048922      50.87793995      51.22433726
C       45.48908497      50.24915998      50.36916365
C       45.90806708      49.83595351      49.10252910
C       47.27732232      49.90875201      48.89368055
C       51.74052299      50.42215744      50.03343034
C       52.11678108      49.31153175      49.25088106
C       53.47361005      48.91941807      49.32473179
C       54.47846012      49.70684800      49.98057449
C       54.02212205      50.72446811      50.81230146
C       52.66386625      51.06833442      50.85273017
H       48.43059707      51.27728475      51.70907985
H       46.07313371      51.46803957      52.22006551
H       44.43014711      50.11898006      50.58423140
H       45.40768706      49.28394634      48.35661321
H       47.74064230      49.43480476      48.00732326
H       51.25539407      48.88076035      48.74935648
H       53.84147146      48.04808294      48.76624070
H       55.56129230      49.54048253      50.00345774
H       54.64121325      51.24121050      51.52636547
H       52.41753048      51.84381703      51.52966664
