24
Lattice="100.0 0.0 0.0 0.0 100.0 0.0 0.0 0.0 100.0" Properties=species:S:1:pos:R:3 Energy=-358671.67096622055 Energy_pyscf=-358669.84617563314 pbc="F F F"
N       50.38265453      50.10417248      50.57657416
N       49.62148502      49.30745071      49.87996317
C       48.31303891      49.69538835      49.89110672
C       47.85218373      50.88136283      50.55630525
C       46.44998545      51.24236975      50.52260187
C       45.50001046      50.35499322      50.04852025
C       45.96595813      49.08710843      49.56019123
C       47.32704306      48.73327056      49.48834917
C       51.74203330      49.75580169      50.33113535
C       52.10341873      49.41773788      48.96428592
C       53.48163987      49.46888092      48.70556362
C       54.42012614      49.69889618      49.67855350
C       54.03380700      49.86996144      50.97481326
C       52.67691599      49.88884560      51.32494062
H       48.56348347      51.64158116      50.86201916
H       46.28249423      52.27496924      50.60935233
H       44.42196514      50.63625197      49.97973922
H       45.08977951      48.40411068      49.57328797
H       47.80572668      47.76752191      49.07334768
H       51.21843330      49.30152066      48.36306959
H       53.72330729      49.52161262      47.64745020
H       55.47596860      49.83863305      49.37938141
H       54.74440005      49.85701235      51.79859277
H       52.39535745      50.33729612      52.24278565
