24
Lattice="100.0 0.0 0.0 0.0 100.0 0.0 0.0 0.0 100.0" Properties=species:S:1:pos:R:3 Energy=-358676.0389064819 Energy_pyscf=-358674.38518246444 pbc="F F F"
N       50.39293879      50.17336635      50.13987119
N       49.68663333      50.24526678      49.12046151
C       48.31009576      50.22424375      49.54647557
C       47.94116435      50.69431629      50.82202948
C       46.56164531      50.79524226      51.15249765
C       45.55054364      50.32828076      50.26682928
C       45.92032492      49.79525000      48.99658193
C       47.28594498      49.83614325      48.66319124
C       51.72558936      50.16986389      50.03417758
C       52.17857850      49.13631276      49.12612174
C       53.57701939      48.94251752      49.04613538
C       54.41328610      49.79745569      49.77243304
C       53.91624108      50.91873576      50.56200798
C       52.55736548      51.12438907      50.54711604
H       48.67152945      51.10150183      51.55654910
H       46.24625397      51.19535044      52.15483554
H       44.50038609      50.33270759      50.58227520
H       45.13943581      49.28458909      48.34549475
H       47.77469698      49.42785584      47.76373912
H       51.34352796      48.42980352      48.86917405
H       53.98486292      48.14719043      48.43808103
H       55.48301401      49.64210841      49.84858890
H       54.62062331      51.47729464      51.06551925
H       52.03189476      51.85710795      51.15517563
