24
Lattice="100.0 0.0 0.0 0.0 100.0 0.0 0.0 0.0 100.0" Properties=species:S:1:pos:R:3 Energy=-358674.8534640598 Energy_pyscf=-358673.48026624956 pbc="F F F"
N       50.35815702      50.09072046      50.38959266
N       49.59619128      49.35410894      49.62677965
C       48.19198188      49.67133348      49.74015024
C       47.84568934      50.99715162      50.20731077
C       46.51041413      51.24811610      50.57598093
C       45.58768864      50.25563847      50.32455796
C       45.95679896      48.96383800      49.81673513
C       47.27670557      48.76726054      49.26518388
C       51.74056482      49.85728071      50.13794943
C       52.22191490      49.71851657      48.81251556
C       53.64222742      49.55392268      48.69844859
C       54.44135485      49.35173530      49.85680050
C       53.94925070      49.70999135      51.12835640
C       52.62731035      50.08909464      51.28500020
H       48.70342589      51.56430697      50.32503253
H       46.27571324      52.25035453      50.72718257
H       44.51396883      50.44718710      50.37559559
H       45.22500639      48.17542862      49.57408968
H       47.64484044      47.82279907      48.80483039
H       51.54922280      49.72854759      47.91340755
H       54.19574705      49.43685200      47.72076924
H       55.53656689      49.18267436      49.75350212
H       54.57841832      49.72179691      52.03354502
H       52.14070038      50.35331350      52.29075472
