24
Lattice="100.0 0.0 0.0 0.0 100.0 0.0 0.0 0.0 100.0" Properties=species:S:1:pos:R:3 Energy=-358675.4015975168 Energy_pyscf=-358677.3243485401 pbc="F F F"
N       50.55304913      50.59108159      50.19537935
N       49.76224763      49.81323685      49.55875203
C       48.36054260      50.17185276      49.70840073
C       47.77437495      50.99620156      50.68295423
C       46.39179937      51.00072503      50.94848481
C       45.54596934      50.28365899      50.12354619
C       46.14646823      49.50619142      49.07103681
C       47.47209648      49.36541711      48.98397882
C       51.93403530      50.26207704      49.95749995
C       52.36809686      49.42105974      48.89788634
C       53.68311220      49.03406137      48.86173739
C       54.57997301      49.50371593      49.79045734
C       54.23870177      50.45200035      50.72968392
C       52.88273618      50.67575622      50.94442517
H       48.35383818      51.73902741      51.29444577
H       46.02005907      51.42104947      51.85715880
H       44.49020231      50.39100113      50.09847571
H       45.52917670      49.14178748      48.24196357
H       47.91248777      48.58636721      48.18004604
H       51.75151751      48.87754134      48.16738534
H       54.08387708      48.32052106      48.07249772
H       55.58621789      49.25975248      49.59577369
H       54.98430471      50.87799264      51.41068190
H       52.55496263      51.21073812      51.80914199
