24
Lattice="100.0 0.0 0.0 0.0 100.0 0.0 0.0 0.0 100.0" Properties=species:S:1:pos:R:3 Energy=-358662.7772399824 Energy_pyscf=-358660.6423782196 pbc="F F F"
N       50.50399048      50.04389810      50.78420171
N       49.67269130      49.44334740      50.00087210
C       48.38479100      49.79719290      50.14084885
C       47.88775459      50.91886417      50.69966040
C       46.43508101      51.04367811      50.65803578
C       45.46489152      50.32020992      49.97672886
C       46.12950932      49.15180629      49.43394669
C       47.50724550      48.90430889      49.46886632
C       51.79442807      49.90923231      50.34852416
C       52.21704588      49.52677282      48.96851116
C       53.60413365      49.21005847      48.68358077
C       54.51264149      49.60249402      49.63617234
C       54.09538931      49.89148647      50.96832610
C       52.73421027      50.11213014      51.32852324
H       48.38941666      51.67586445      51.33873549
H       46.14121536      51.96935138      51.20647038
H       44.41133490      50.37769516      49.92041261
H       45.47086141      48.43149670      48.90829815
H       47.73376978      47.88393927      49.21191392
H       51.45098361      49.45386898      48.21959808
H       53.93285530      48.85833874      47.71862087
H       55.55789305      49.37067778      49.60210601
H       55.04283208      50.03472725      51.68755431
H       52.39708657      50.25987496      52.38389201
