24
Lattice="100.0 0.0 0.0 0.0 100.0 0.0 0.0 0.0 100.0" Properties=species:S:1:pos:R:3 Energy=-358659.308584553 Energy_pyscf=-358656.0660406722 pbc="F F F"
N       50.50850780      49.57288739      49.35254776
N       49.72288659      50.48467772      49.85019468
C       48.34132805      50.33627563      49.84712474
C       47.54632641      51.15241761      50.77154668
C       46.24727753      50.95491696      51.06796423
C       45.55493876      50.01730495      50.34401488
C       46.23259750      49.24104899      49.42203905
C       47.57276624      49.44426879      49.09453393
C       51.96556660      49.63925969      49.59836455
C       52.85661330      48.86149422      48.77497611
C       54.23875769      48.99944623      49.02082831
C       54.63352425      49.72971672      50.17029822
C       53.66008279      50.24896922      51.12115446
C       52.38336166      50.25266120      50.72709585
H       48.18693459      51.81542221      51.31202277
H       45.84687489      51.40144191      52.00480947
H       44.46463775      50.04198879      50.64164427
H       45.88251739      48.32227597      49.04491360
H       48.09032623      48.75118307      48.43378021
H       52.40857799      48.13986396      47.93931266
H       55.02407009      48.62345937      48.42891622
H       55.64365958      49.90721442      50.41206647
H       54.27923400      50.88921799      51.77248108
H       51.68567411      50.88017705      51.22539608
