24
Lattice="100.0 0.0 0.0 0.0 100.0 0.0 0.0 0.0 100.0" Properties=species:S:1:pos:R:3 Energy=-358662.274474095 Energy_pyscf=-358660.4419308998 pbc="F F F"
N       50.39911285      49.51713551      49.39224104
N       49.81949079      50.54766966      49.84097521
C       48.38432450      50.32174663      49.80613093
C       47.69715475      51.17359354      50.66704335
C       46.43336869      50.90686025      51.12632433
C       45.66675717      49.95209897      50.39574965
C       46.37476535      49.14152178      49.48348906
C       47.73243572      49.44804904      49.07213635
C       51.84306788      49.59992114      49.62704386
C       52.73150965      48.88139909      48.75131495
C       54.06206660      49.08695386      49.03358457
C       54.55485563      49.68309547      50.18521924
C       53.69419701      50.33316817      51.00728074
C       52.25130790      50.30838299      50.77901709
H       48.32104468      51.86300242      51.23164943
H       45.93584481      51.38355034      51.97324349
H       44.60942402      50.05576539      50.49206569
H       45.88087459      48.30584728      49.06389216
H       48.09978710      48.81820228      48.37898270
H       52.43625831      48.13542705      48.01409552
H       54.81088814      48.62730978      48.34836422
H       55.56659020      49.92631540      50.37376036
H       54.15457993      50.84546710      51.84377780
H       51.56852398      50.85303019      51.50376291
