24
Lattice="100.0 0.0 0.0 0.0 100.0 0.0 0.0 0.0 100.0" Properties=species:S:1:pos:R:3 Energy=-358668.20935144805 Energy_pyscf=-358667.38995114353 pbc="F F F"
N       50.41064787      50.26574172      49.43112690
N       49.60511483      49.96334098      50.33446282
C       48.22836540      50.36472222      50.02905884
C       47.56121801      50.83666425      51.15830165
C       46.22479832      51.05316536      51.17225312
C       45.56332243      50.62872433      49.98202686
C       46.18839173      50.13667053      48.85674421
C       47.57232118      50.04820457      48.79316184
C       51.78005801      50.11245073      49.67895824
C       52.52574023      49.00919954      49.19827707
C       53.86456142      49.04527389      49.35105946
C       54.48558006      50.14589246      49.98076030
C       53.75763705      51.10807748      50.54545110
C       52.38208416      51.10725862      50.44070817
H       48.04955600      51.10784198      52.13396485
H       45.80646858      51.54747415      52.02298839
H       44.48735319      50.66939562      49.91974503
H       45.47662769      49.96463109      48.06543052
H       48.00009899      49.79267856      47.84514484
H       52.04660388      48.27168621      48.60585130
H       54.36393632      48.27386862      48.86623317
H       55.52510745      50.22275112      49.81941639
H       54.32821408      51.89212036      51.02652238
H       51.77860171      51.97874061      50.65504546
