24
Lattice="100.0 0.0 0.0 0.0 100.0 0.0 0.0 0.0 100.0" Properties=species:S:1:pos:R:3 Energy=-358672.1340864905 Energy_pyscf=-358670.2284207929 pbc="F F F"
N       50.28851989      50.46187879      50.42418184
N       49.54117848      49.59194002      49.93049069
C       48.17070252      49.91916910      49.99955950
C       47.50271215      50.41540201      51.19368235
C       46.26707975      50.96625885      51.05217207
C       45.57205095      50.83849702      49.85554991
C       46.09207957      50.09314407      48.82149703
C       47.37269222      49.65598443      48.97629494
C       51.68379249      50.21771179      50.13219701
C       52.02647776      49.14417970      49.26720566
C       53.37873783      49.04503787      49.04736316
C       54.28343701      49.94464745      49.70255456
C       53.89488498      50.91156846      50.53430565
C       52.55070721      51.08566297      50.71612679
H       48.07833945      50.45053873      52.18495901
H       45.74097155      51.26025134      51.96494860
H       44.60598768      51.35490199      49.82751719
H       45.70331253      49.92078725      47.86503587
H       47.88280767      49.07509409      48.20186490
H       51.24467864      48.37557055      49.06751994
H       53.81376157      48.12556574      48.64213793
H       55.29015943      49.72206960      49.50761010
H       54.56562229      51.58404988      51.06377239
H       52.17991976      51.74201857      51.50548743
