24
Lattice="100.0 0.0 0.0 0.0 100.0 0.0 0.0 0.0 100.0" Properties=species:S:1:pos:R:3 Energy=-358679.0174142448 Energy_pyscf=-358676.16722132347 pbc="F F F"
N       50.24927380      49.71066550      50.46547392
N       49.50857052      48.99098461      49.72019448
C       48.16292202      49.39233372      49.99293875
C       47.94808433      50.73558829      50.44488421
C       46.60628879      51.15069455      50.44460169
C       45.59041806      50.34049503      50.00513225
C       45.80733902      49.01619583      49.55620078
C       47.14771171      48.59604014      49.54255596
C       51.63838099      49.58789624      50.25997001
C       52.09278080      49.25771199      48.90667584
C       53.53559246      49.35712264      48.72019435
C       54.42319015      49.68659998      49.77755589
C       53.91634338      49.90143018      51.04870021
C       52.58786192      49.68705757      51.26039899
H       48.81727235      51.37847079      50.76028297
H       46.46174595      52.28687348      50.50658901
H       44.55764283      50.69286629      50.19648319
H       44.98715665      48.42714607      49.13331030
H       47.36172293      47.58765389      49.13646820
H       51.39705103      49.28251687      48.06096857
H       54.03151951      49.21454609      47.75165352
H       55.46814228      49.91853794      49.66642345
H       54.63413900      50.28134898      51.81509603
H       52.09134312      49.91423263      52.23171810
