24
Lattice="100.0 0.0 0.0 0.0 100.0 0.0 0.0 0.0 100.0" Properties=species:S:1:pos:R:3 Energy=-358670.8894751283 Energy_pyscf=-358666.51153202506 pbc="F F F"
N       50.31155522      50.36934359      50.19728089
N       49.50553811      49.91473223      49.24143390
C       48.15160585      50.02461748      49.65294850
C       47.75350100      50.34222220      50.94258981
C       46.43781238      50.60091007      51.35650744
C       45.43879136      50.45272620      50.42417381
C       45.71503564      50.20045402      49.10631432
C       47.08065466      49.88894481      48.67171290
C       51.65507205      50.01191335      50.09746184
C       52.28145226      48.91817651      49.53271060
C       53.64118616      48.82964262      49.59753560
C       54.44596797      49.92961646      50.04049599
C       53.82881072      51.02199570      50.51816874
C       52.48312993      51.16296780      50.39939802
H       48.52721037      50.39044442      51.75056129
H       46.13561863      51.03625563      52.33713804
H       44.44146050      50.84625823      50.77596782
H       44.75971136      50.04397505      48.50057375
H       47.27416287      49.58279965      47.62663667
H       51.65186416      48.04013329      49.23061668
H       54.21002982      48.01691100      49.07869550
H       55.44696912      49.70452868      50.22099737
H       54.28558054      51.85741916      51.02818947
H       51.98875911      52.00086806      50.84548072
