24
Lattice="100.0 0.0 0.0 0.0 100.0 0.0 0.0 0.0 100.0" Properties=species:S:1:pos:R:3 Energy=-358678.2803384112 Energy_pyscf=-358674.74856321263 pbc="F F F"
N       50.46289007      50.01598892      50.84344447
N       49.65556096      49.54999701      49.95825073
C       48.32515622      49.76340629      50.17382706
C       47.76242054      50.89078761      50.78673934
C       46.38259878      51.09316981      50.66581449
C       45.48277141      50.24546606      49.96497074
C       46.05456792      49.06127722      49.42846706
C       47.44781678      48.93343463      49.47361071
C       51.81659637      49.89268813      50.26323108
C       52.23234311      49.49533897      48.94176374
C       53.58283345      49.18673580      48.74173447
C       54.59950283      49.54719471      49.72784873
C       54.18761658      49.91034956      51.04935351
C       52.80371458      50.14225703      51.29175636
H       48.29811721      51.58720316      51.51119940
H       46.07265875      52.04049094      51.20913877
H       44.37200494      50.44544432      49.96758060
H       45.47416626      48.32764683      48.84359120
H       47.86425123      48.12574189      49.06611770
H       51.52844347      49.31437081      48.12390247
H       53.91862557      48.78481863      47.68229353
H       55.67203082      49.34088282      49.56795992
H       54.97667293      50.04608144      51.70893402
H       52.50357995      50.42306135      52.30179447
