24
Lattice="100.0 0.0 0.0 0.0 100.0 0.0 0.0 0.0 100.0" Properties=species:S:1:pos:R:3 Energy=-358671.5975615855 Energy_pyscf=-358668.31810072344 pbc="F F F"
N       50.43555402      49.65313862      49.22792543
N       49.75442378      50.52369970      49.75822632
C       48.36907141      50.34422126      49.80520942
C       47.69030928      51.23996079      50.63883954
C       46.34516532      50.95103791      51.04411357
C       45.59467806      49.96673987      50.40443288
C       46.29906092      49.22705284      49.42289406
C       47.68265052      49.31714346      49.13639817
C       51.85940914      49.66994968      49.57356998
C       52.79894821      48.85768841      48.87923508
C       54.15131940      49.00365424      49.08597819
C       54.57062086      49.70977090      50.22154892
C       53.61991483      50.29264615      51.06181333
C       52.31344787      50.38755726      50.69948976
H       48.32602741      51.80161223      51.35904794
H       45.91767896      51.37403254      51.95844722
H       44.47680711      49.99013905      50.59113331
H       45.80101493      48.36000236      49.05550769
H       48.23137491      48.72876057      48.47198600
H       52.32785293      48.21977021      48.00715694
H       54.92611320      48.62533588      48.35825383
H       55.67918942      49.86464581      50.29970471
H       54.17569838      50.87611134      51.86242013
H       51.67278222      50.71829063      51.45299432
