24
Lattice="100.0 0.0 0.0 0.0 100.0 0.0 0.0 0.0 100.0" Properties=species:S:1:pos:R:3 Energy=-358678.5632005952 Energy_pyscf=-358668.5932386875 pbc="F F F"
N       50.32644279      50.18610844      50.58721313
N       49.48544625      49.36759680      50.03947898
C       48.23253674      49.85832191      49.92899683
C       47.73604132      50.81593433      50.76784517
C       46.36076468      51.14747137      50.84996617
C       45.44071276      50.43680389      50.10764341
C       45.82332306      49.30604940      49.44874986
C       47.23363574      49.03091472      49.27030170
C       51.72287181      49.94557881      50.34684551
C       52.15913191      49.29148838      49.15580330
C       53.51675093      49.24852962      48.71576619
C       54.44486881      49.79986011      49.68306353
C       54.06794308      50.21644632      50.98575360
C       52.73329045      50.35055608      51.31242447
H       48.51890971      51.53215468      51.16958814
H       46.14332204      51.92412203      51.53992231
H       44.38643481      50.77940606      50.17177669
H       45.12048338      48.54694854      49.22971556
H       47.46367312      48.15725355      48.68385994
H       51.45619831      48.84234662      48.57790832
H       53.76391189      48.76935377      47.76758592
H       55.50783384      49.85066844      49.49238156
H       54.79379297      50.64070377      51.69578098
H       52.28768856      50.80460719      52.22304343
