24
Lattice="100.0 0.0 0.0 0.0 100.0 0.0 0.0 0.0 100.0" Properties=species:S:1:pos:R:3 Energy=-358672.11735663796 Energy_pyscf=-358669.87211422913 pbc="F F F"
N       50.48012739      50.66102667      49.97686158
N       49.70822175      49.66771907      49.61097586
C       48.37046101      50.01244091      49.68241124
C       47.89840722      50.88742853      50.70583871
C       46.50180991      50.85275676      51.05679086
C       45.57637400      49.95715063      50.44051582
C       46.06325961      49.26196853      49.31710422
C       47.44399602      49.24744821      48.99849193
C       51.73966787      50.13423728      50.03760778
C       52.19024232      49.37683074      48.96328907
C       53.54658847      48.92788391      48.95202219
C       54.42689454      49.18698114      50.01752088
C       53.98187651      50.11368706      51.02787098
C       52.56763203      50.60124576      51.04872919
H       48.60240040      51.55913144      51.14334000
H       46.28479530      51.56936797      51.78722374
H       44.56913329      50.06085669      50.61118506
H       45.40320672      48.54076943      48.86027039
H       47.86923811      48.46899266      48.27682432
H       51.54780204      49.10643466      48.11816973
H       53.90577302      48.32571464      48.12721983
H       55.49216251      48.86972951      49.93325447
H       54.64093890      50.45407485      51.75550840
H       52.26181467      51.24005685      51.80970296
