24
Lattice="100.0 0.0 0.0 0.0 100.0 0.0 0.0 0.0 100.0" Properties=species:S:1:pos:R:3 Energy=-358671.8510043105 Energy_pyscf=-358671.14198850846 pbc="F F F"
N       50.45258417      49.36747011      49.41846794
N       49.64893358      50.22619358      49.91696312
C       48.23063289      50.00315854      49.94702301
C       47.67813438      50.80538677      50.86700268
C       46.31492210      50.76083215      51.00367764
C       45.42450941      49.88726865      50.32984649
C       46.09340885      48.88951913      49.43633350
C       47.47947208      48.95088779      49.30892334
C       51.78527644      49.50946239      49.64883799
C       52.67059020      48.80096902      48.76318551
C       54.05291917      48.81674982      49.04263711
C       54.54497385      49.32315536      50.31922310
C       53.65321033      50.09628700      51.16704318
C       52.32893381      50.11283477      50.84318622
H       48.22981301      51.67648663      51.38775560
H       46.01141971      51.58034632      51.68203398
H       44.36578686      49.91678186      50.28376792
H       45.56515816      48.30052775      48.71400390
H       48.11061352      48.45230864      48.58863125
H       52.19864566      48.40357186      47.82050740
H       54.83892956      48.27767546      48.48968206
H       55.61132815      49.12599780      50.68416672
H       54.03979501      50.67500817      52.04616345
H       51.56814058      50.65500084      51.41991088
