24
Lattice="100.0 0.0 0.0 0.0 100.0 0.0 0.0 0.0 100.0" Properties=species:S:1:pos:R:3 Energy=-358667.4339047599 Energy_pyscf=-358665.9145640987 pbc="F F F"
N       50.41227677      49.48168160      49.20581687
N       49.73767879      50.42570668      49.90308587
C       48.33706700      50.30705300      49.88215832
C       47.61143476      51.09433014      50.83147556
C       46.24669862      51.00086812      51.11033274
C       45.58562942      50.01462571      50.40032683
C       46.16205615      49.23538138      49.43090049
C       47.53701329      49.33352157      49.14258982
C       51.87003211      49.61106782      49.54695697
C       52.85767951      48.88871711      48.75217906
C       54.26186265      48.97784810      49.05802303
C       54.71435510      49.72919936      50.19943692
C       53.73702614      50.33905808      51.00097822
C       52.40444815      50.33841229      50.66292051
H       48.05879791      51.99896106      51.42183153
H       45.84810136      51.48274647      51.97125304
H       44.42731131      49.94600995      50.51326576
H       45.77900496      48.29669398      48.94327171
H       47.98565565      48.80559973      48.33466731
H       52.53331009      48.16889458      48.00791666
H       55.02269228      48.56289934      48.37898426
H       55.75729534      49.86927872      50.35715259
H       54.24873116      50.88553077      51.91327682
H       51.86831711      50.89522383      51.40504341
