12
Lattice="100.0 0.0 0.0 0.0 100.0 0.0 0.0 0.0 100.0" Properties=species:S:1:pos:R:3 Energy=-145428.375 Energy_pyscf=-145424.66153526597 pbc="F F F"
C       49.00692247      49.13987839      49.54613441
C       48.57410780      50.32751204      50.02502415
C       49.56361047      51.30933646      50.25826850
C       50.91603556      51.10361787      50.03651797
C       51.32710581      49.82769881      49.83243019
C       50.38685682      48.86649315      49.56313107
H       48.24997524      48.39190073      49.26108443
H       47.50782593      50.60799233      50.07456300
H       49.03895322      52.16891002      50.68185656
H       51.57759215      51.89322441      50.15124586
H       52.41671532      49.61227559      49.85658374
H       50.66441169      47.84464435      49.41216314
