12
Lattice="100.0 0.0 0.0 0.0 100.0 0.0 0.0 0.0 100.0" Properties=species:S:1:pos:R:3 Energy=-145428.75 Energy_pyscf=-145426.35618056165 pbc="F F F"
C       49.07761709      49.02428811      49.54496679
C       48.64095975      50.31427976      49.78694288
C       49.58803201      51.27632406      50.14949794
C       51.05648168      51.01580271      50.08235516
C       51.38954022      49.76793111      49.68953944
C       50.41365020      48.77060519      49.46429466
H       48.38156065      48.21008082      49.43840099
H       47.55182779      50.46648769      49.88992943
H       49.43201427      52.22502863      50.61464448
H       51.81088345      51.76159835      50.24100546
H       52.44280579      49.52823057      49.53745403
H       50.69095339      47.68849301      49.35214017
