12
Lattice="100.0 0.0 0.0 0.0 100.0 0.0 0.0 0.0 100.0" Properties=species:S:1:pos:R:3 Energy=-145431.390625 Energy_pyscf=-145430.17072007508 pbc="F F F"
C       48.98560712      49.11887099      49.51148953
C       48.56691586      50.34935173      49.99264444
C       49.53660139      51.34997761      50.27945927
C       50.88429634      51.13586997      50.16675096
C       51.33390479      49.81852771      49.82921082
C       50.37534775      48.84706861      49.50064839
H       48.32456351      48.34758181      49.33607666
H       47.45639874      50.53829103      50.05575749
H       49.13961365      52.24305462      50.64326573
H       51.57686022      51.96947398      50.18908226
H       52.39694321      49.56809907      49.82596734
H       50.63265641      47.77039310      49.37446727
