12
Lattice="100.0 0.0 0.0 0.0 100.0 0.0 0.0 0.0 100.0" Properties=species:S:1:pos:R:3 Energy=-145429.8125 Energy_pyscf=-145427.20611844477 pbc="F F F"
C       49.01817963      48.91033712      49.85658802
C       48.60191674      50.13219635      50.34326663
C       49.55174570      51.11734679      50.59728166
C       50.98253955      50.85810427      50.50975585
C       51.33859544      49.57893570      50.15109973
C       50.33531367      48.65130700      49.71639841
H       48.23813719      48.15335596      49.56874530
H       47.54658280      50.41119618      50.43850787
H       49.17780333      52.13019725      50.82389256
H       51.74219521      51.48291418      50.90593753
H       52.42036914      49.21867755      50.14478979
H       50.71836079      47.84866170      49.19829516
