12
Lattice="100.0 0.0 0.0 0.0 100.0 0.0 0.0 0.0 100.0" Properties=species:S:1:pos:R:3 Energy=-145429.484375 Energy_pyscf=-145427.09973008427 pbc="F F F"
C       49.08686943      49.01450916      49.56296503
C       48.63067632      50.32348593      49.81398755
C       49.60983650      51.24560511      50.19259209
C       51.00783622      50.98702767      50.06046062
C       51.42774826      49.76109033      49.71105765
C       50.42162609      48.78727559      49.42688418
H       48.40097239      48.20563745      49.42094887
H       47.58886840      50.50556533      49.87727639
H       49.36326087      52.24805004      50.59168290
H       51.82146624      51.81307713      50.26357772
H       52.45665715      49.43318792      49.49918482
H       50.68139958      47.71313697      49.37430072
