12
Lattice="100.0 0.0 0.0 0.0 100.0 0.0 0.0 0.0 100.0" Properties=species:S:1:pos:R:3 Energy=-145430.46875 Energy_pyscf=-145429.1497793796 pbc="F F F"
C       49.03548768      49.08199748      49.55376554
C       48.65026955      50.35161736      49.93778119
C       49.55421113      51.33607727      50.29269935
C       50.96066457      51.02239016      50.21488762
C       51.32476448      49.78131961      49.77985613
C       50.35926678      48.76834087      49.48217847
H       48.29921612      48.37689492      49.52312032
H       47.53843052      50.52207173      50.02737423
H       49.14816135      52.31143083      50.62135109
H       51.75517286      51.77407921      50.27599906
H       52.36145238      49.47867808      49.76235238
H       50.66479910      47.71497059      49.36391698
