12
Lattice="100.0 0.0 0.0 0.0 100.0 0.0 0.0 0.0 100.0" Properties=species:S:1:pos:R:3 Energy=-145432.65625 Energy_pyscf=-145431.97008280375 pbc="F F F"
C       49.04902389      49.01384196      49.83554739
C       48.66045489      50.31875683      50.14588397
C       49.58716644      51.25259376      50.53506218
C       50.94222152      50.88995730      50.44771861
C       51.33225265      49.63101316      49.99250543
C       50.37615656      48.65317382      49.69119325
H       48.22798175      48.30530518      49.51533943
H       47.58999028      50.47896778      50.18117185
H       49.20429092      52.23104349      50.79579018
H       51.72100753      51.64603601      50.66501223
H       52.42393537      49.22582378      49.99278987
H       50.72064762      47.69158908      49.23174894
