12
Lattice="100.0 0.0 0.0 0.0 100.0 0.0 0.0 0.0 100.0" Properties=species:S:1:pos:R:3 Energy=-145431.765625 Energy_pyscf=-145431.1714810734 pbc="F F F"
C       49.10190184      48.93313918      49.70121794
C       48.67110838      50.23630054      50.16747111
C       49.64544516      51.18790536      50.48356083
C       50.97339235      50.87561457      50.39616319
C       51.39087027      49.59965311      49.96254422
C       50.45324261      48.62196083      49.69029931
H       48.41116656      48.04819586      49.54878512
H       47.61904909      50.51531416      50.29641573
H       49.37836555      52.20181758      50.81862613
H       51.71058613      51.67927599      50.43986806
H       52.39832274      49.36788525      49.79206689
H       50.82266135      47.72219401      49.20162859
