12
Lattice="100.0 0.0 0.0 0.0 100.0 0.0 0.0 0.0 100.0" Properties=species:S:1:pos:R:3 Energy=-145432.3125 Energy_pyscf=-145430.8698454263 pbc="F F F"
C       49.01813311      49.07461840      49.68028144
C       48.60761077      50.32924917      50.15208791
C       49.53004747      51.32415302      50.40741408
C       50.90015357      51.00548534      50.33586960
C       51.26588870      49.75868512      49.92002502
C       50.36332680      48.72052089      49.61153049
H       48.27924173      48.34445662      49.42963828
H       47.60875800      50.51444355      50.45710903
H       49.23281268      52.35705264      50.74055485
H       51.58441983      51.90253526      50.45219732
H       52.30099274      49.55230597      49.84379405
H       50.68128277      47.73391685      49.28591309
