12
Lattice="100.0 0.0 0.0 0.0 100.0 0.0 0.0 0.0 100.0" Properties=species:S:1:pos:R:3 Energy=-145432.453125 Energy_pyscf=-145431.08692644208 pbc="F F F"
C       48.98706848      48.97264918      49.83382822
C       48.61306933      50.26314888      50.19768073
C       49.52852981      51.33660766      50.46117621
C       50.86108787      50.97082650      50.44869543
C       51.28748293      49.67286754      50.02621929
C       50.33851776      48.72762457      49.62811314
H       48.29933987      48.17752079      49.82831562
H       47.52999300      50.45516691      50.28656479
H       48.99660042      52.25785638      50.73507864
H       51.63956314      51.70585737      50.65895754
H       52.37027310      49.49117166      49.93577023
H       50.68816424      47.75763447      49.20440840
