12
Lattice="100.0 0.0 0.0 0.0 100.0 0.0 0.0 0.0 100.0" Properties=species:S:1:pos:R:3 Energy=-145436.5 Energy_pyscf=-145436.6812284557 pbc="F F F"
C       49.08462394      48.91701214      49.75482848
C       48.67548694      50.20194537      50.16907066
C       49.65228111      51.19583165      50.48379317
C       50.98555580      50.91384927      50.38131972
C       51.39958407      49.62236987      49.95438937
C       50.44976588      48.62950875      49.66801707
H       48.37315308      48.11030609      49.51288949
H       47.63130092      50.48601894      50.31882052
H       49.32513266      52.19629576      50.81118562
H       51.74232046      51.67282853      50.46852127
H       52.45359423      49.38630083      49.80368895
H       50.81828590      47.67098292      49.20145851
