12
Lattice="100.0 0.0 0.0 0.0 100.0 0.0 0.0 0.0 100.0" Properties=species:S:1:pos:R:3 Energy=-145434.59375 Energy_pyscf=-145434.18455242759 pbc="F F F"
C       49.05696889      48.96240566      49.64516279
C       48.68790761      50.28107084      49.98040613
C       49.62744432      51.25627860      50.34929197
C       51.01121078      50.91305526      50.24888245
C       51.33520737      49.65249501      49.83128338
C       50.37691091      48.66159974      49.56731602
H       48.28523568      48.21298036      49.38903038
H       47.65730878      50.57347198      49.98092431
H       49.31456277      52.32849389      50.63794952
H       51.79749626      51.66072530      50.43996062
H       52.42865563      49.32902797      49.67464487
H       50.70403025      47.66037312      49.33219266
