12
Lattice="100.0 0.0 0.0 0.0 100.0 0.0 0.0 0.0 100.0" Properties=species:S:1:pos:R:3 Energy=-145429.171875 Energy_pyscf=-145425.8064962323 pbc="F F F"
C       48.90742069      48.99610366      49.81348251
C       48.56072433      50.27352218      50.21057123
C       49.47854862      51.32589601      50.40886332
C       50.85395241      50.94764989      50.46545177
C       51.28743815      49.69068297      49.96187197
C       50.31072278      48.71381926      49.66094771
H       48.35739801      48.09984734      49.82447908
H       47.52973047      50.46212746      50.32107054
H       49.12505637      52.30770996      50.72704513
H       51.59458736      51.72926906      50.68453342
H       52.43759712      49.46953980      49.96179864
H       50.73148558      47.80419369      49.20781665
