12
Lattice="100.0 0.0 0.0 0.0 100.0 0.0 0.0 0.0 100.0" Properties=species:S:1:pos:R:3 Energy=-145430.921875 Energy_pyscf=-145430.02611613073 pbc="F F F"
C       48.99414089      49.02903927      49.84004715
C       48.57433880      50.30267627      50.21685101
C       49.46278222      51.30777017      50.43450265
C       50.88750672      50.93415892      50.43201111
C       51.32911772      49.67468370      49.95252055
C       50.34433740      48.73162971      49.59454282
H       48.27187310      48.13889815      49.81792652
H       47.48997700      50.40635904      50.28279764
H       49.09112482      52.29223485      50.76846210
H       51.58330077      51.75654306      50.64935954
H       52.43714568      49.46525657      49.98085680
H       50.67384338      47.76859076      49.27192620
