12
Lattice="100.0 0.0 0.0 0.0 100.0 0.0 0.0 0.0 100.0" Properties=species:S:1:pos:R:3 Energy=-145434.0 Energy_pyscf=-145432.31901935008 pbc="F F F"
C       49.00884735      49.08313875      49.68444499
C       48.61675101      50.30256611      50.08983277
C       49.57085909      51.26748969      50.41407307
C       50.93405291      51.03562735      50.31581075
C       51.35640228      49.73365807      49.99908717
C       50.38889262      48.79501246      49.63355136
H       48.22999323      48.31079457      49.37038844
H       47.53664251      50.44917929      50.22001297
H       49.17327145      52.25229856      50.58554616
H       51.66714915      51.85689911      50.63912059
H       52.42166088      49.48842846      49.93668901
H       50.60903999      47.73887874      49.31326522
