12
Lattice="100.0 0.0 0.0 0.0 100.0 0.0 0.0 0.0 100.0" Properties=species:S:1:pos:R:3 Energy=-145432.96875 Energy_pyscf=-145433.28962085984 pbc="F F F"
C       49.07248405      48.94565552      49.88829226
C       48.67942903      50.25534332      50.29379622
C       49.64905733      51.20461592      50.55153554
C       51.05625967      50.93623161      50.45912289
C       51.44782210      49.70923511      50.00465093
C       50.47084896      48.67749241      49.80044257
H       48.33242287      48.16743209      49.72121488
H       47.57823621      50.52976055      50.33351641
H       49.41888200      52.28815667      50.70608006
H       51.78957603      51.70072602      50.73007449
H       52.52067529      49.55231922      49.72630791
H       50.83100359      47.72587021      49.35944078
