12
Lattice="100.0 0.0 0.0 0.0 100.0 0.0 0.0 0.0 100.0" Properties=species:S:1:pos:R:3 Energy=-145434.875 Energy_pyscf=-145434.6748124531 pbc="F F F"
C       48.98563829      49.07439898      49.70392273
C       48.59976194      50.33565560      50.10869062
C       49.54557701      51.31982620      50.41516015
C       50.90443253      51.03642473      50.35487126
C       51.36327827      49.72504408      49.94935589
C       50.39114203      48.77184643      49.62166542
H       48.25061575      48.28849678      49.35831210
H       47.52605491      50.44409411      50.19289542
H       49.20762135      52.31270671      50.60829476
H       51.66504555      51.78185477      50.62778611
H       52.41432249      49.51388633      49.92944602
H       50.69431726      47.71281264      49.32336906
