12
Lattice="100.0 0.0 0.0 0.0 100.0 0.0 0.0 0.0 100.0" Properties=species:S:1:pos:R:3 Energy=-145432.8125 Energy_pyscf=-145431.96678349035 pbc="F F F"
C       49.09570078      49.10648311      49.58880504
C       48.60317201      50.34852221      50.03232330
C       49.55574737      51.34807334      50.33298136
C       50.93114672      51.04233218      50.09395672
C       51.32306946      49.71831592      49.82207975
C       50.43705649      48.72002140      49.47624150
H       48.27177319      48.40740643      49.35503520
H       47.55112664      50.42278598      50.23415894
H       49.23860244      52.34293578      50.68505423
H       51.68312454      51.84688025      50.26343683
H       52.43416204      49.51866868      49.76989850
H       50.63025423      47.66290513      49.25703048
