12
Lattice="100.0 0.0 0.0 0.0 100.0 0.0 0.0 0.0 100.0" Properties=species:S:1:pos:R:3 Energy=-145427.109375 Energy_pyscf=-145424.73683007646 pbc="F F F"
C       49.08087868      49.01109700      49.69119950
C       48.68997402      50.28190934      49.97686677
C       49.55636130      51.26110433      50.34582330
C       50.97820454      50.88193018      50.34259636
C       51.38007331      49.64120259      49.84587164
C       50.41824859      48.73218888      49.52210916
H       48.33471005      48.22715424      49.39569157
H       47.61254884      50.55304872      49.98344580
H       49.32700532      52.28598526      50.59429782
H       51.81745184      51.55304696      50.40125137
H       52.41567197      49.32363077      49.63273202
H       50.71877033      47.72108366      49.38065031
