12
Lattice="100.0 0.0 0.0 0.0 100.0 0.0 0.0 0.0 100.0" Properties=species:S:1:pos:R:3 Energy=-145430.359375 Energy_pyscf=-145428.81690723557 pbc="F F F"
C       48.98600070      49.02918884      49.81883780
C       48.57394434      50.31003668      50.22783386
C       49.47846905      51.26708490      50.46206462
C       50.87204728      50.95754166      50.40881618
C       51.33293315      49.66594907      49.98173447
C       50.32265542      48.72062095      49.61764788
H       48.26904732      48.19715639      49.79325042
H       47.49750853      50.40439938      50.30592652
H       49.00399624      52.26638651      50.72752997
H       51.64827590      51.66143190      50.65864616
H       52.42901611      49.50799787      49.94408140
H       50.69626409      47.78422894      49.30510820
