12
Lattice="100.0 0.0 0.0 0.0 100.0 0.0 0.0 0.0 100.0" Properties=species:S:1:pos:R:3 Energy=-145432.234375 Energy_pyscf=-145431.34532109112 pbc="F F F"
C       48.97276380      48.99445323      49.81228832
C       48.58568001      50.25021398      50.15986526
C       49.50542522      51.31191025      50.44953649
C       50.85290035      50.97266663      50.44375318
C       51.30117278      49.72964861      49.99345471
C       50.34819212      48.70265835      49.64747976
H       48.26683509      48.16803302      49.79644856
H       47.54170155      50.50906231      50.33961959
H       49.02474271      52.21539063      50.76580412
H       51.60548716      51.68130278      50.65515409
H       52.40892242      49.51051659      49.93220906
H       50.69901546      47.75153247      49.27484102
