12
Lattice="100.0 0.0 0.0 0.0 100.0 0.0 0.0 0.0 100.0" Properties=species:S:1:pos:R:3 Energy=-145431.015625 Energy_pyscf=-145428.5027848315 pbc="F F F"
C       49.02065837      48.96211694      49.80804234
C       48.68851933      50.29113935      50.11182984
C       49.57998657      51.19267792      50.55563211
C       50.93656243      50.88462092      50.47259725
C       51.31216948      49.64589511      50.04296956
C       50.38467691      48.68003806      49.70116929
H       48.22696443      48.32101230      49.54609355
H       47.58514058      50.48623908      50.14552493
H       49.31348629      52.17497554      50.78435559
H       51.72714507      51.63803307      50.66069569
H       52.31455807      49.29804940      49.92806892
H       50.73727441      47.73399927      49.28020026
