12
Lattice="100.0 0.0 0.0 0.0 100.0 0.0 0.0 0.0 100.0" Properties=species:S:1:pos:R:3 Energy=-145431.46875 Energy_pyscf=-145431.2231439576 pbc="F F F"
C       49.06229883      49.06766046      49.56472694
C       48.62420540      50.35724487      49.95907389
C       49.55668504      51.36438644      50.32586411
C       50.91464665      51.01747480      50.18188325
C       51.37261400      49.73133649      49.84338964
C       50.44449740      48.75033590      49.45525111
H       48.27334235      48.34081902      49.35294296
H       47.52269427      50.43312135      50.28675093
H       49.23800403      52.39083680      50.68814657
H       51.69004140      51.83685847      50.24864591
H       52.44578696      49.50932725      49.74344474
H       50.61948304      47.67108889      49.25749774
