12
Lattice="100.0 0.0 0.0 0.0 100.0 0.0 0.0 0.0 100.0" Properties=species:S:1:pos:R:3 Energy=-145428.90625 Energy_pyscf=-145425.26922670234 pbc="F F F"
C       48.98789221      48.92670886      49.86461570
C       48.59322816      50.13854565      50.33620740
C       49.52210107      51.14729057      50.53583592
C       50.98713235      50.85826811      50.54137774
C       51.33565704      49.57222745      50.15414070
C       50.38840568      48.64260795      49.72210998
H       48.24472283      48.13891194      49.56596698
H       47.56228762      50.34292835      50.46718774
H       49.19919829      52.16994767      50.81702140
H       51.79906532      51.51546263      50.92099567
H       52.41841198      49.21812331      50.16326665
H       50.66136505      47.83661642      49.14645255
