12
Lattice="100.0 0.0 0.0 0.0 100.0 0.0 0.0 0.0 100.0" Properties=species:S:1:pos:R:3 Energy=-145429.171875 Energy_pyscf=-145427.2392779633 pbc="F F F"
C       49.06555629      48.94816983      49.98887445
C       48.62941176      50.23702623      50.33081462
C       49.58977498      51.29776496      50.54372992
C       50.91255132      50.92198049      50.48371930
C       51.32481645      49.60530640      50.16807884
C       50.39341290      48.72602268      49.72939500
H       48.29563111      48.21633005      49.67734293
H       47.55324165      50.35596920      50.41555566
H       49.23324536      52.30432808      50.54037606
H       51.66131006      51.75438089      50.57193581
H       52.39662728      49.34290270      50.09032019
H       50.56981032      47.68292009      49.37307869
