12
Lattice="100.0 0.0 0.0 0.0 100.0 0.0 0.0 0.0 100.0" Properties=species:S:1:pos:R:3 Energy=-145430.734375 Energy_pyscf=-145429.50028425717 pbc="F F F"
C       49.01849298      49.09943144      49.52527819
C       48.61908639      50.38795387      49.92076175
C       49.55412678      51.31792170      50.22988613
C       50.94040873      51.01537843      50.21045492
C       51.29927908      49.74948126      49.72746199
C       50.38249285      48.75668346      49.52418732
H       48.23683258      48.35567284      49.53956411
H       47.58652052      50.53577047      50.04391731
H       49.19526981      52.28686248      50.61884268
H       51.73446435      51.72985447      50.34912361
H       52.38845331      49.57609434      49.76161087
H       50.66510358      47.73652768      49.38177883
