12
Lattice="100.0 0.0 0.0 0.0 100.0 0.0 0.0 0.0 100.0" Properties=species:S:1:pos:R:3 Energy=-145433.046875 Energy_pyscf=-145432.53818341292 pbc="F F F"
C       49.02909153      49.09751636      49.70040244
C       48.62052273      50.36121385      50.17882643
C       49.53111802      51.36455776      50.42437771
C       50.91058417      51.04452980      50.30400949
C       51.29037956      49.71490710      49.97232859
C       50.34445413      48.71083167      49.58818947
H       48.23654350      48.37836004      49.44213294
H       47.58191021      50.46871560      50.43483564
H       49.19310149      52.32844618      50.72629997
H       51.61517048      51.89630439      50.44791018
H       52.34878889      49.59051773      49.82445547
H       50.67168859      47.70056695      49.27713627
