12
Lattice="100.0 0.0 0.0 0.0 100.0 0.0 0.0 0.0 100.0" Properties=species:S:1:pos:R:3 Energy=-145430.109375 Energy_pyscf=-145428.41671893574 pbc="F F F"
C       49.03811271      49.01142222      49.73900274
C       48.64868906      50.33471422      50.04853379
C       49.54969647      51.33556394      50.37636857
C       50.90835768      51.00511236      50.27705615
C       51.34053187      49.70259082      49.85298499
C       50.39170880      48.75022639      49.53593581
H       48.25395129      48.24204164      49.64677770
H       47.56325756      50.48072782      50.00723475
H       49.26906402      52.22956101      50.85767982
H       51.62531591      51.68496205      50.74196952
H       52.36444058      49.30378448      49.97212528
H       50.55889292      47.73077627      49.17453664
