12
Lattice="100.0 0.0 0.0 0.0 100.0 0.0 0.0 0.0 100.0" Properties=species:S:1:pos:R:3 Energy=-145432.984375 Energy_pyscf=-145432.55834646424 pbc="F F F"
C       49.04169683      49.10064665      49.59007704
C       48.63210203      50.37116730      49.98191200
C       49.56364318      51.32944446      50.30990263
C       50.93623655      51.01128639      50.12458988
C       51.31374552      49.73186595      49.80418849
C       50.40196720      48.75255576      49.46736167
H       48.29596124      48.33898527      49.40991298
H       47.61591322      50.43341975      50.21306353
H       49.28282024      52.33879617      50.66179497
H       51.61232212      51.84253259      50.32364955
H       52.37817982      49.50900149      49.74069457
H       50.65434347      47.71034782      49.26575315
