12
Lattice="100.0 0.0 0.0 0.0 100.0 0.0 0.0 0.0 100.0" Properties=species:S:1:pos:R:3 Energy=-145432.796875 Energy_pyscf=-145431.99626043832 pbc="F F F"
C       49.02650953      49.04172030      49.73458008
C       48.60456394      50.35740049      50.18501582
C       49.56436235      51.33923784      50.34687804
C       50.88602956      50.94955965      50.30096779
C       51.34552976      49.72363448      49.92181141
C       50.39493191      48.75832812      49.61947705
H       48.24793067      48.33521689      49.53885997
H       47.52308739      50.46671512      50.24676591
H       49.26706518      52.32354679      50.62814212
H       51.61038137      51.78280028      50.54139558
H       52.46079190      49.53737122      49.86351282
H       50.73330739      47.76728877      49.31812869
