12
Lattice="100.0 0.0 0.0 0.0 100.0 0.0 0.0 0.0 100.0" Properties=species:S:1:pos:R:3 Energy=-145433.546875 Energy_pyscf=-145432.8445037496 pbc="F F F"
C       48.99326097      49.09491009      49.56439365
C       48.56003101      50.32019105      50.01283754
C       49.55250498      51.31605823      50.36755503
C       50.91208939      51.02565247      50.24735653
C       51.35267156      49.78480156      49.80852630
C       50.39445708      48.80894754      49.53318115
H       48.22505323      48.30366923      49.33924796
H       47.56136895      50.55577209      50.05028359
H       49.16054307      52.20525488      50.85764588
H       51.60137830      51.81707034      50.59163280
H       52.41132444      49.56274296      49.71878562
H       50.63831964      47.81177575      49.13240971
