12
Lattice="100.0 0.0 0.0 0.0 100.0 0.0 0.0 0.0 100.0" Properties=species:S:1:pos:R:3 Energy=-145432.53125 Energy_pyscf=-145432.49122892707 pbc="F F F"
C       49.09762687      48.95899820      49.96101450
C       48.65985914      50.28474480      50.24572797
C       49.69384637      51.18275938      50.52501239
C       51.05493222      50.91814746      50.48334237
C       51.44780478      49.68232421      49.97943024
C       50.48996571      48.69838151      49.74052698
H       48.36474672      48.19229365      49.70468134
H       47.57002575      50.58591077      50.33478876
H       49.39640718      52.24470533      50.70596135
H       51.71748475      51.70795973      50.75972769
H       52.50738884      49.54433890      49.69110519
H       50.82075082      47.73869212      49.38103945
