12
Lattice="100.0 0.0 0.0 0.0 100.0 0.0 0.0 0.0 100.0" Properties=species:S:1:pos:R:3 Energy=-145433.265625 Energy_pyscf=-145433.06512040878 pbc="F F F"
C       49.06345009      49.06643187      49.57666810
C       48.64096861      50.32154304      49.99496574
C       49.56888237      51.34774191      50.31238649
C       50.91974922      51.02650692      50.13926304
C       51.35515389      49.70193850      49.81181605
C       50.38531716      48.73442129      49.44383794
H       48.27403058      48.34466002      49.35184655
H       47.56768810      50.43035811      50.25069531
H       49.28436915      52.36420828      50.67405826
H       51.63379243      51.89966341      50.29455807
H       52.40029461      49.49024976      49.75007484
H       50.62292902      47.69027580      49.28426943
