12
Lattice="100.0 0.0 0.0 0.0 100.0 0.0 0.0 0.0 100.0" Properties=species:S:1:pos:R:3 Energy=-145430.625 Energy_pyscf=-145428.24527622436 pbc="F F F"
C       49.06134457      49.06534908      49.53879248
C       48.63177003      50.30697605      49.79878368
C       49.62360595      51.29599195      50.19340076
C       51.02231599      50.99055758      50.13104823
C       51.44541008      49.71871182      49.63480139
C       50.41781198      48.76859614      49.45180308
H       48.37481145      48.18887294      49.43531877
H       47.53055139      50.46970641      49.85161409
H       49.38207249      52.27575415      50.61940900
H       51.77875501      51.74763918      50.22299096
H       52.47281399      49.45770161      49.50818614
H       50.74961876      47.73281604      49.39175705
