12
Lattice="100.0 0.0 0.0 0.0 100.0 0.0 0.0 0.0 100.0" Properties=species:S:1:pos:R:3 Energy=-145434.75 Energy_pyscf=-145434.49193090192 pbc="F F F"
C       49.01718180      49.09084905      49.57599471
C       48.61117799      50.34254086      50.01005974
C       49.54710269      51.37186660      50.33340155
C       50.92518500      51.03454216      50.21588491
C       51.31409810      49.75791253      49.83388310
C       50.36194775      48.77603734      49.50953715
H       48.25888413      48.29124906      49.35566987
H       47.50570141      50.64343124      49.93463612
H       49.08258075      52.31062249      50.65604313
H       51.67946499      51.75913031      50.45838288
H       52.37885893      49.52849436      49.67415211
H       50.64555179      47.72320716      49.32033645
