12
Lattice="100.0 0.0 0.0 0.0 100.0 0.0 0.0 0.0 100.0" Properties=species:S:1:pos:R:3 Energy=-145428.84375 Energy_pyscf=-145423.83382913694 pbc="F F F"
C       48.97102209      48.91188366      49.88465771
C       48.60611481      50.15832916      50.34029291
C       49.57675280      51.13586240      50.60343707
C       51.02007376      50.86090656      50.56897533
C       51.35197786      49.63249212      50.09544839
C       50.32711538      48.66540456      49.74326446
H       48.28959951      48.11627281      49.54542493
H       47.61212291      50.40328285      50.47542409
H       49.07506376      52.10758425      50.74722099
H       51.81121924      51.52783795      50.96994937
H       52.38319768      49.16984317      50.13968414
H       50.68793949      47.81063100      49.17070946
