12
Lattice="100.0 0.0 0.0 0.0 100.0 0.0 0.0 0.0 100.0" Properties=species:S:1:pos:R:3 Energy=-145431.953125 Energy_pyscf=-145430.10092374682 pbc="F F F"
C       49.01894336      48.99944903      49.83835337
C       48.56286014      50.29700443      50.18785227
C       49.48354755      51.26525705      50.45170555
C       50.82709645      50.95406033      50.43752403
C       51.32049340      49.72761463      49.96750176
C       50.35383215      48.70414597      49.65190893
H       48.26232014      48.21281777      49.78626863
H       47.56880237      50.44669194      50.31754851
H       49.04410294      52.24211543      50.73203722
H       51.59799400      51.70354940      50.66272141
H       52.43389478      49.49998411      49.93921068
H       50.66849339      47.73410983      49.26403555
