12
Lattice="100.0 0.0 0.0 0.0 100.0 0.0 0.0 0.0 100.0" Properties=species:S:1:pos:R:3 Energy=-145429.328125 Energy_pyscf=-145427.15422275627 pbc="F F F"
C       49.04480272      49.07131796      49.57969563
C       48.60854774      50.37259233      49.98403319
C       49.59296112      51.36470750      50.23427844
C       50.93313050      51.04219674      50.14086914
C       51.39534508      49.66203398      49.82292555
C       50.40242101      48.73999554      49.41408153
H       48.28599312      48.33072880      49.37333180
H       47.57978805      50.44416162      50.30631458
H       49.21115513      52.31744150      50.70062815
H       51.66415917      51.89703854      50.31308635
H       52.44582141      49.50368084      49.77052771
H       50.59135257      47.69813633      49.28760435
