12
Lattice="100.0 0.0 0.0 0.0 100.0 0.0 0.0 0.0 100.0" Properties=species:S:1:pos:R:3 Energy=-145430.359375 Energy_pyscf=-145428.42368131675 pbc="F F F"
C       48.98141085      48.96641673      49.66429401
C       48.62841606      50.30942342      49.93548085
C       49.60668692      51.23830350      50.36280342
C       51.03320707      50.96307744      50.25414201
C       51.38828121      49.66013761      49.77741106
C       50.39940682      48.66857205      49.54327896
H       48.31780622      48.20004068      49.34184113
H       47.65113756      50.62414553      50.07365641
H       49.30653815      52.24211259      50.60488926
H       51.83863307      51.65038872      50.46120054
H       52.43411059      49.30603158      49.71186436
H       50.76169335      47.63664333      49.39146557
