12
Lattice="100.0 0.0 0.0 0.0 100.0 0.0 0.0 0.0 100.0" Properties=species:S:1:pos:R:3 Energy=-145432.59375 Energy_pyscf=-145431.54693086084 pbc="F F F"
C       49.01032110      49.06694955      49.74473019
C       48.56369928      50.30836051      50.15340199
C       49.55754380      51.30110842      50.47317279
C       50.91760754      50.99123244      50.31772619
C       51.35680292      49.70922833      50.05947869
C       50.36854762      48.76729891      49.65606075
H       48.34415602      48.28790575      49.34752122
H       47.50615104      50.53728565      50.40474810
H       49.12624683      52.25003291      50.73167269
H       51.66349699      51.84234897      50.39790164
H       52.42491399      49.47223523      49.83698031
H       50.66898194      47.74164660      49.29145312
