12
Lattice="100.0 0.0 0.0 0.0 100.0 0.0 0.0 0.0 100.0" Properties=species:S:1:pos:R:3 Energy=-145431.140625 Energy_pyscf=-145429.51642579722 pbc="F F F"
C       49.03717666      49.04069610      49.51095101
C       48.61853181      50.34121393      49.82652949
C       49.60613545      51.28111524      50.16820966
C       51.02534806      50.99807834      50.09256283
C       51.41329155      49.77104913      49.63355402
C       50.40382290      48.72883186      49.42785958
H       48.43990961      48.16364991      49.40605799
H       47.56413576      50.50002073      49.93837838
H       49.40349532      52.28063844      50.58304202
H       51.78354874      51.79692945      50.25805175
H       52.50071784      49.44400388      49.56119487
H       50.71031715      47.69384672      49.37650440
