12
Lattice="100.0 0.0 0.0 0.0 100.0 0.0 0.0 0.0 100.0" Properties=species:S:1:pos:R:3 Energy=-145429.09375 Energy_pyscf=-145426.61964947562 pbc="F F F"
C       49.04180922      49.01010724      49.73538282
C       48.66506545      50.25854442      50.21995720
C       49.61589386      51.31899667      50.45853100
C       50.93145620      50.93344301      50.29241568
C       51.30903430      49.66856157      49.97078637
C       50.40191333      48.69722305      49.63730764
H       48.34560926      48.34759028      49.24116106
H       47.63657821      50.53526101      50.17201389
H       49.28679523      52.32880527      50.69258027
H       51.63896909      51.66598973      50.69766192
H       52.36933308      49.30153157      50.08468052
H       50.68046838      47.71027314      49.36079548
