12
Lattice="100.0 0.0 0.0 0.0 100.0 0.0 0.0 0.0 100.0" Properties=species:S:1:pos:R:3 Energy=-145429.671875 Energy_pyscf=-145426.88362830514 pbc="F F F"
C       49.06363078      49.07346514      49.72832192
C       48.66521256      50.27369140      50.22345415
C       49.62458745      51.30006127      50.50263627
C       50.92090549      51.02123940      50.35597893
C       51.33639102      49.67031400      50.07625440
C       50.40583650      48.65214907      49.76097746
H       48.23985903      48.49081857      49.44700559
H       47.56740220      50.39677025      50.37907097
H       49.24872585      52.26123976      50.77399146
H       51.70517997      51.79067350      50.47636603
H       52.38700112      49.37085161      50.09913946
H       50.65204661      47.68718439      49.32646061
