12
Lattice="100.0 0.0 0.0 0.0 100.0 0.0 0.0 0.0 100.0" Properties=species:S:1:pos:R:3 Energy=-145429.234375 Energy_pyscf=-145424.4480573465 pbc="F F F"
C       48.98850967      48.97411063      49.80305123
C       48.59379668      50.30613224      50.15029362
C       49.53969610      51.33107145      50.37734149
C       50.90261609      50.99627719      50.44060381
C       51.31451430      49.67012599      50.01873509
C       50.30321466      48.72875566      49.66728146
H       48.26987744      48.17129905      49.84988556
H       47.55183831      50.44961387      50.31027660
H       48.93066768      52.22341792      50.78796511
H       51.66569363      51.73810959      50.70740696
H       52.41899597      49.46528945      49.91871845
H       50.68232553      47.74942297      49.23694927
