12
Lattice="100.0 0.0 0.0 0.0 100.0 0.0 0.0 0.0 100.0" Properties=species:S:1:pos:R:3 Energy=-145431.71875 Energy_pyscf=-145430.76498443092 pbc="F F F"
C       49.01546836      48.96104812      49.86353878
C       48.58920952      50.28050126      50.22918356
C       49.47818627      51.27287005      50.48191317
C       50.84093847      50.96514833      50.40839340
C       51.35094536      49.70462256      49.98368393
C       50.34820154      48.69135837      49.64543304
H       48.28486513      48.19724887      49.79726884
H       47.50717006      50.44793732      50.29485462
H       49.04275777      52.25655789      50.69794250
H       51.63707283      51.71191112      50.68584796
H       52.42431872      49.52201577      49.95738344
H       50.60675727      47.76416849      49.22090263
