12
Lattice="100.0 0.0 0.0 0.0 100.0 0.0 0.0 0.0 100.0" Properties=species:S:1:pos:R:3 Energy=-145430.203125 Energy_pyscf=-145429.00490108776 pbc="F F F"
C       49.11296083      49.08559689      49.62264120
C       48.61291326      50.33640895      49.99642341
C       49.57100629      51.37040051      50.26274610
C       50.94084442      51.07118871      50.11248151
C       51.35158817      49.74202934      49.78052251
C       50.43112800      48.74012570      49.46871612
H       48.29639028      48.41548968      49.40910258
H       47.58251552      50.42374958      50.23762064
H       49.21818944      52.26349386      50.69682153
H       51.63562050      51.83794230      50.32216425
H       52.43219510      49.46030016      49.78051157
H       50.59753983      47.67529261      49.24571575
