12
Lattice="100.0 0.0 0.0 0.0 100.0 0.0 0.0 0.0 100.0" Properties=species:S:1:pos:R:3 Energy=-145429.25 Energy_pyscf=-145424.56297840428 pbc="F F F"
C       48.97081856      49.13066594      49.49880368
C       48.60327082      50.41380752      49.89959777
C       49.52922844      51.40395940      50.26391381
C       50.94163398      51.07787835      50.11814446
C       51.29615293      49.77983725      49.64374273
C       50.34878052      48.77123524      49.53736274
H       48.13409117      48.52802194      49.32325421
H       47.49048906      50.69587343      49.84403172
H       49.17872663      52.33113177      50.80714198
H       51.64312484      51.87973059      50.27272586
H       52.30683515      49.54465489      49.70936146
H       50.64318178      47.80720696      49.25045553
