12
Lattice="100.0 0.0 0.0 0.0 100.0 0.0 0.0 0.0 100.0" Properties=species:S:1:pos:R:3 Energy=-145434.046875 Energy_pyscf=-145433.28649083897 pbc="F F F"
C       48.98505194      48.98094693      49.80086074
C       48.58494270      50.29617703      50.21250554
C       49.48334671      51.29565800      50.44829264
C       50.87100172      50.97992314      50.43976481
C       51.30347937      49.68623411      50.00233844
C       50.36930024      48.70533671      49.63674392
H       48.26771017      48.19405238      49.79551534
H       47.48048226      50.42894310      50.29437570
H       49.03442835      52.25414722      50.74712670
H       51.65495076      51.72621068      50.67328629
H       52.41455004      49.51123930      49.92956975
H       50.66815237      47.75100676      49.25682222
