12
Lattice="100.0 0.0 0.0 0.0 100.0 0.0 0.0 0.0 100.0" Properties=species:S:1:pos:R:3 Energy=-145430.34375 Energy_pyscf=-145428.44386564876 pbc="F F F"
C       48.99169734      49.12913812      49.55971062
C       48.59593364      50.35699898      49.99338943
C       49.51019618      51.34986748      50.26157825
C       50.83354257      51.15606828      50.10818990
C       51.30621449      49.81779163      49.84291605
C       50.34365833      48.83130008      49.56438884
H       48.29330364      48.29099119      49.29162762
H       47.51396665      50.57931835      50.05549854
H       49.13543024      52.23586583      50.65786024
H       51.63681042      51.84647512      50.18694457
H       52.41573112      49.65217137      49.84937935
H       50.65498743      47.83125031      49.34396421
