12
Lattice="100.0 0.0 0.0 0.0 100.0 0.0 0.0 0.0 100.0" Properties=species:S:1:pos:R:3 Energy=-145431.03125 Energy_pyscf=-145429.99128563702 pbc="F F F"
C       49.06727410      49.02582301      49.68232987
C       48.61552883      50.28885126      50.01233328
C       49.59966148      51.29013854      50.30200420
C       50.95726804      51.00068643      50.35834414
C       51.34020361      49.75761404      49.80648477
C       50.42853885      48.77026241      49.54746366
H       48.26582969      48.36067997      49.45120363
H       47.56486278      50.57800864      50.12584654
H       49.25059882      52.22993292      50.67866750
H       51.67394274      51.67409396      50.82295393
H       52.40244763      49.44305777      49.87601189
H       50.65037819      47.75392570      49.16801558
