15
Lattice="100.0 0.0 0.0 0.0 100.0 0.0 0.0 0.0 100.0" Properties=species:S:1:pos:R:3 Energy=-170048.453125 Energy_pyscf=-170042.74817733723 Energy_nn=-170048.4375 pbc="F F F"
C       52.58201810      49.95235150      50.09856500
C       51.10169281      49.98257115      50.13486016
C       50.25794698      49.16669877      50.94523230
C       48.83142820      49.16332061      50.66249753
C       48.14907074      50.09986986      49.83608937
C       49.01807503      50.90708481      49.08546315
C       50.42114365      50.90223088      49.27562430
H       53.02845423      50.95638552      49.85367322
H       52.91322063      49.70767298      51.07363438
H       53.03924534      49.38604804      49.22899720
H       50.66053726      48.29086771      51.48791271
H       48.19579458      48.49578010      51.25907361
H       47.11042159      50.02609709      49.64922027
H       48.50523725      51.62893749      48.48910052
H       51.06354032      51.55135908      48.64373452
