15
Lattice="100.0 0.0 0.0 0.0 100.0 0.0 0.0 0.0 100.0" Properties=species:S:1:pos:R:3 Energy=-170048.640625 Energy_pyscf=-170050.47036169455 Energy_nn=-170048.234375 pbc="F F F"
C       52.40967769      49.87496390      50.14006492
C       50.93397993      49.83142461      50.03475418
C       50.19354195      48.96387612      50.85259826
C       48.77999002      49.06076721      50.67702132
C       48.12995714      50.00177234      49.84838111
C       48.87111185      50.78461748      48.99126229
C       50.25417708      50.73343455      49.17337707
H       52.72995662      50.87644808      49.84766385
H       52.85421065      49.61925241      51.12330196
H       52.86579025      49.26587201      49.32697674
H       50.68571967      48.28540253      51.56186363
H       48.16881302      48.38175481      51.30965952
H       47.04238330      50.15772388      49.92945103
H       48.42562274      51.54189837      48.33122992
H       50.93348956      51.39046764      48.56883621
