15
Lattice="100.0 0.0 0.0 0.0 100.0 0.0 0.0 0.0 100.0" Properties=species:S:1:pos:R:3 Energy=-170051.484375 Energy_pyscf=-170042.71873152355 Energy_nn=-170051.234375 pbc="F F F"
C       52.54018615      49.88181274      50.03095172
C       51.06241617      49.88746692      49.97555963
C       50.22173719      49.07852382      50.75197922
C       48.77653786      48.99998578      50.65900724
C       48.27785230      49.91769654      49.67588389
C       49.11576519      50.80727506      49.00660004
C       50.47071360      50.85653656      49.10290336
H       52.91148720      50.37424814      49.14440122
H       52.95836695      50.50989535      50.76778041
H       52.95959473      48.85301532      50.15350351
H       50.64176149      48.49864066      51.61084444
H       48.15178428      48.53606900      51.43801735
H       47.18916805      49.98925132      49.60257963
H       48.58003638      51.44696115      48.28276151
H       51.10369155      51.48107837      48.44889858
