15
Lattice="100.0 0.0 0.0 0.0 100.0 0.0 0.0 0.0 100.0" Properties=species:S:1:pos:R:3 Energy=-170011.578125 Energy_pyscf=-169987.53326789325 Energy_nn=-170012.25 pbc="F F F"
C       52.39912790      50.03035208      50.49610043
C       50.92801531      50.12037716      50.28880595
C       50.18302520      49.26195905      51.07808624
C       48.65694884      49.28535656      50.88108364
C       47.97702680      50.19274685      50.08842775
C       48.68021036      50.83189218      49.26297386
C       50.08822876      50.85142013      49.26415820
H       52.74132964      49.00313617      50.76533404
H       53.10803270      50.55644256      49.70973267
H       52.70984940      50.69938074      51.28419862
H       50.28029321      48.13367655      51.31480899
H       48.00128955      48.45672956      51.55200184
H       46.92908045      50.11588050      49.87319569
H       48.07761941      51.39655495      48.45470437
H       50.67007687      51.71223228      48.69479673
