15
Lattice="100.0 0.0 0.0 0.0 100.0 0.0 0.0 0.0 100.0" Properties=species:S:1:pos:R:3 Energy=-170025.484375 Energy_pyscf=-170029.1502849517 Energy_nn=-170025.625 pbc="F F F"
C       52.49661423      50.08752844      50.14395727
C       50.98895403      50.13209430      50.18445924
C       50.25778600      49.23195231      50.94441634
C       48.80895401      49.20304422      50.85935290
C       48.10514848      50.06205518      50.00760003
C       48.93674672      50.92408030      49.12246207
C       50.25324544      51.01313063      49.34917606
H       52.76977992      50.33413447      49.08936624
H       52.92064909      50.69633401      50.94331163
H       52.91087307      49.11137835      50.39231232
H       50.62119524      48.45766843      51.65452564
H       48.38901110      48.39742721      51.37871435
H       47.08559118      50.12347004      49.93129388
H       48.52840231      51.72617353      48.22964859
H       50.94024681      51.57236227      48.76406899
