15
Lattice="100.0 0.0 0.0 0.0 100.0 0.0 0.0 0.0 100.0" Properties=species:S:1:pos:R:3 Energy=-170046.921875 Energy_pyscf=-170048.7322171071 Energy_nn=-170046.40625 pbc="F F F"
C       52.44913980      50.09088411      50.16088960
C       50.95319250      50.02338552      50.20935580
C       50.21556988      49.09821420      50.93136252
C       48.82835191      49.14300223      50.77742750
C       48.19989676      50.13297311      49.98912244
C       48.95930744      51.00566130      49.19855375
C       50.33815737      50.89606312      49.27441956
H       52.92325358      50.40934668      49.17320752
H       52.84898654      50.89187992      50.84366625
H       52.81926024      49.10614406      50.36483489
H       50.69755425      48.52728529      51.72182604
H       48.20594644      48.40360891      51.32401561
H       47.08312021      50.20528500      49.97991316
H       48.48095120      51.61574587      48.43666971
H       51.00164527      51.53480104      48.65274834
