15
Lattice="100.0 0.0 0.0 0.0 100.0 0.0 0.0 0.0 100.0" Properties=species:S:1:pos:R:3 Energy=-170044.71875 Energy_pyscf=-170044.87787998715 Energy_nn=-170044.328125 pbc="F F F"
C       52.53636163      50.13723751      50.13311581
C       51.05419348      49.98255407      50.01853464
C       50.23834550      49.20249141      50.91264088
C       48.87753308      49.19708273      50.68108761
C       48.25494377      50.07988905      49.75805586
C       49.03171019      50.92946188      49.00934229
C       50.45790526      50.91620017      49.16596644
H       53.05169318      50.57790762      49.25703382
H       52.89381718      50.62995882      51.13234536
H       52.88766254      49.13667829      50.29258406
H       50.69075194      48.70511790      51.71809682
H       48.27253898      48.46728471      51.22169665
H       47.17187880      50.08087033      49.68828750
H       48.57929453      51.61895878      48.31538336
H       51.03368026      51.75183313      48.69873449
