15
Lattice="100.0 0.0 0.0 0.0 100.0 0.0 0.0 0.0 100.0" Properties=species:S:1:pos:R:3 Energy=-170008.328125 Energy_pyscf=-169992.93371445232 Energy_nn=-170008.640625 pbc="F F F"
C       52.25944447      49.81083017      50.04179596
C       50.77586355      49.65276193      50.01078634
C       49.87930559      48.91983426      50.78857060
C       48.45869162      49.17179973      50.88873014
C       47.94496872      49.84388885      49.62590897
C       48.78786970      50.74023273      48.93800077
C       50.15198842      50.83673669      49.26400729
H       52.72891156      50.55452054      50.71655290
H       52.47553514      48.98436414      50.75883699
H       52.75234582      49.83523931      49.05160097
H       50.67253178      48.43800356      51.43811481
H       47.96163161      48.46195100      51.54459514
H       47.04723411      49.55945110      49.06799942
H       48.25165916      51.59251288      48.42824076
H       50.88066225      51.52572905      48.89983187
