15
Lattice="100.0 0.0 0.0 0.0 100.0 0.0 0.0 0.0 100.0" Properties=species:S:1:pos:R:3 Energy=-170037.4375 Energy_pyscf=-170040.52814170858 Energy_nn=-170037.5625 pbc="F F F"
C       52.51171087      49.93164833      50.23709512
C       51.00153705      49.86188674      50.10544931
C       50.18768081      49.10230742      50.97584921
C       48.81583006      49.11951313      50.64173145
C       48.12040209      50.09701930      49.85201105
C       48.93617909      50.89942249      49.11476564
C       50.35499757      50.83321558      49.24849444
H       52.96725187      49.91826772      49.22870445
H       52.87436745      50.88163743      50.65291011
H       53.03137652      49.02839854      50.67820957
H       50.72276107      48.43369088      51.59903886
H       48.26516151      48.36400357      51.25966423
H       47.02721376      50.13314240      49.66106073
H       48.49925066      51.63098473      48.46321118
H       50.98317147      51.54071200      48.57878735
