15
Lattice="100.0 0.0 0.0 0.0 100.0 0.0 0.0 0.0 100.0" Properties=species:S:1:pos:R:3 Energy=-170028.90625 Energy_pyscf=-170037.77735932058 Energy_nn=-170029.0 pbc="F F F"
C       52.55405702      49.93592730      50.12951116
C       51.03272494      49.98877411      50.19457169
C       50.19802376      49.09455795      50.95241116
C       48.88430613      49.03795923      50.73391917
C       48.19159019      49.87940397      49.80491757
C       49.00022526      50.80832766      49.22630294
C       50.39599993      50.84482648      49.31314967
H       53.03375706      49.97221711      49.19137005
H       52.93563604      50.71311249      50.81717059
H       52.80277719      49.00622550      50.65062416
H       50.72489314      48.53714240      51.72207599
H       48.19690896      48.60841708      51.46920841
H       47.14359884      49.96389064      49.75315889
H       48.69211618      51.58088640      48.54947084
H       50.95660259      51.56469108      48.70769204
