15
Lattice="100.0 0.0 0.0 0.0 100.0 0.0 0.0 0.0 100.0" Properties=species:S:1:pos:R:3 Energy=-170015.265625 Energy_pyscf=-170016.2024833243 Energy_nn=-170015.890625 pbc="F F F"
C       52.60776031      50.09007714      50.25443717
C       51.10344271      50.27925344      50.15762502
C       50.33539441      49.37855014      51.00450299
C       48.86782168      49.35433830      50.85928214
C       48.30538378      50.14455154      49.95512516
C       48.95910407      51.09416807      49.17873782
C       50.39355387      51.20442794      49.48023927
H       53.04281826      50.64727071      49.46304835
H       52.90610785      50.40784167      51.22865104
H       52.93907175      49.08965251      50.08603655
H       50.76796331      48.57961494      51.49953983
H       48.43222926      48.51284653      51.29343657
H       47.31205852      49.95118906      49.60235967
H       48.65697101      51.47360990      48.25570565
H       50.79532408      51.60404726      48.55762196
