15
Lattice="100.0 0.0 0.0 0.0 100.0 0.0 0.0 0.0 100.0" Properties=species:S:1:pos:R:3 Energy=-170021.53125 Energy_pyscf=-170018.1871475485 Energy_nn=-170021.875 pbc="F F F"
C       52.59099299      50.15198381      50.14306318
C       51.10385183      49.95974167      50.00676895
C       50.31440709      49.12504958      50.87517940
C       48.78865680      49.25118513      50.70319892
C       48.19911932      50.09736601      49.81810053
C       49.07349394      51.01408702      49.25635749
C       50.43546859      50.91543950      49.23946106
H       52.97120922      50.72653047      49.35008154
H       52.92391458      50.68378936      51.07666886
H       52.98371641      49.07282179      50.22553800
H       50.68400983      48.73358207      51.80921443
H       48.34489151      48.47015610      51.15408134
H       47.12298207      50.14550632      49.37696150
H       48.53174447      51.59844338      48.43737672
H       51.03067656      51.47511971      48.55018515
