15
Lattice="100.0 0.0 0.0 0.0 100.0 0.0 0.0 0.0 100.0" Properties=species:S:1:pos:R:3 Energy=-170041.390625 Energy_pyscf=-170031.10957042023 Energy_nn=-170041.484375 pbc="F F F"
C       52.36193571      50.02098543      50.47954470
C       50.87161225      50.02390484      50.21083825
C       50.02595693      49.09403942      50.84850211
C       48.56659430      49.18230291      50.88621640
C       47.94951259      50.01289374      50.02522062
C       48.79370329      50.90204367      49.27056103
C       50.28600721      50.93529485      49.24737388
H       52.78631868      49.01369736      50.92031689
H       52.92432603      50.28313228      49.63554845
H       52.64290495      50.90308113      51.14868968
H       50.54871770      48.30246323      51.45981976
H       47.95833884      48.55534878      51.56930053
H       46.90662587      50.08155152      49.88680905
H       48.09571818      51.46014592      48.56535977
H       50.71398003      51.86015481      48.85652170
