15
Lattice="100.0 0.0 0.0 0.0 100.0 0.0 0.0 0.0 100.0" Properties=species:S:1:pos:R:3 Energy=-170042.078125 Energy_pyscf=-170038.28791865235 Energy_nn=-170042.015625 pbc="F F F"
C       52.41455087      49.86566970      50.37482083
C       50.89617635      49.89723424      50.21752468
C       50.07127488      48.95358768      50.82241196
C       48.64647691      49.05005414      50.90914716
C       48.01067226      49.91042659      50.04505995
C       48.87109901      50.77206205      49.26394833
C       50.31452715      50.82036014      49.31210625
H       52.69987948      50.43133218      51.28955889
H       52.87663987      48.86957192      50.69729817
H       52.94307734      50.24538881      49.45779661
H       50.69733869      48.19541121      51.44653760
H       48.04418457      48.45371593      51.48976907
H       46.93944338      49.91103743      49.95138321
H       48.30607561      51.44829284      48.53385179
H       50.73363272      51.73347666      48.86695423
