15
Lattice="100.0 0.0 0.0 0.0 100.0 0.0 0.0 0.0 100.0" Properties=species:S:1:pos:R:3 Energy=-170025.578125 Energy_pyscf=-170030.26647813132 Energy_nn=-170025.625 pbc="F F F"
C       52.54276251      49.98022764      50.20960925
C       51.02231709      50.05739997      50.15702012
C       50.22780297      49.10175497      50.90222380
C       48.86565697      49.16629976      50.65625150
C       48.21719044      50.04281910      49.83490033
C       48.90023377      51.02541166      49.06855098
C       50.40463966      50.89506588      49.26012416
H       53.05491135      50.15393806      49.28526022
H       52.85525370      50.81559411      50.85542835
H       52.73526107      48.98730977      50.65037320
H       50.80941820      48.46193274      51.53812724
H       48.25900198      48.46529631      51.17096093
H       47.07986292      49.83183762      49.89649991
H       48.47070247      51.70131563      48.45682167
H       50.89679944      51.51304947      48.58743252
