15
Lattice="100.0 0.0 0.0 0.0 100.0 0.0 0.0 0.0 100.0" Properties=species:S:1:pos:R:3 Energy=-170013.359375 Energy_pyscf=-170018.38634562638 Energy_nn=-170013.765625 pbc="F F F"
C       52.44849500      49.81141081      50.01706235
C       51.01085740      49.97883102      50.09508613
C       50.17854652      49.11755111      50.74838005
C       48.82614287      49.01451453      50.51849713
C       48.28105524      49.74973680      49.59066525
C       49.05567056      50.71971510      48.84584062
C       50.38848654      50.80114498      49.13389700
H       52.81875533      50.64439983      49.50975904
H       52.97778208      49.77529840      50.97588892
H       52.64685382      48.86065392      49.57689030
H       50.58436280      48.36136978      51.42891859
H       48.26158526      48.42892085      51.25951079
H       47.25494767      50.19488163      49.56437242
H       48.47974074      51.40174868      48.40114482
H       50.94857042      51.40088256      48.39716393
