15
Lattice="100.0 0.0 0.0 0.0 100.0 0.0 0.0 0.0 100.0" Properties=species:S:1:pos:R:3 Energy=-170009.6875 Energy_pyscf=-170007.70454735553 Energy_nn=-170010.171875 pbc="F F F"
C       52.25523421      49.95130587      50.15565904
C       50.92279128      49.88959473      49.89933484
C       50.15367279      49.04089233      50.66139235
C       48.74533216      49.13354243      50.64947986
C       48.14642842      50.10388412      49.89570111
C       48.93528283      50.90742391      49.00976163
C       50.35024235      50.87009703      49.12508713
H       52.92921094      49.19213259      50.37114498
H       52.73374829      50.53790991      49.32226901
H       52.44607312      50.42583525      51.08957557
H       50.57037657      48.45937616      51.54742529
H       48.19652878      48.52405979      51.34900355
H       47.03619454      50.22439396      49.56666149
H       48.35888767      51.40664896      48.44249433
H       50.93701617      51.66999169      48.65800222
