15
Lattice="100.0 0.0 0.0 0.0 100.0 0.0 0.0 0.0 100.0" Properties=species:S:1:pos:R:3 Energy=-170036.265625 Energy_pyscf=-170026.67118495645 Energy_nn=-170036.046875 pbc="F F F"
C       52.43189921      50.21035553      50.39745126
C       50.94984807      50.07690345      50.23205405
C       50.08472790      49.01628600      50.73833448
C       48.75399063      49.18971771      50.86416029
C       48.14023351      50.02823495      50.01993393
C       48.96932580      50.88900450      49.22366623
C       50.38597385      50.88037206      49.26058530
H       52.82855807      51.20850109      50.60196016
H       53.01711091      49.42987865      51.02306595
H       52.93033345      49.96217129      49.40517168
H       50.66718847      48.46537435      51.43443971
H       48.10679611      48.58489452      51.50981182
H       46.98560444      50.04532215      49.87948565
H       48.44829376      51.59363033      48.51272884
H       50.98215779      51.48724637      48.51473173
