15
Lattice="100.0 0.0 0.0 0.0 100.0 0.0 0.0 0.0 100.0" Properties=species:S:1:pos:R:3 Energy=-170048.3125 Energy_pyscf=-170040.7839985389 Energy_nn=-170047.796875 pbc="F F F"
C       52.37772069      49.86167327      50.39176827
C       50.91110677      49.95166506      50.22897943
C       50.11027941      49.05634962      50.88139829
C       48.76263360      49.03938910      50.89561061
C       48.01203675      50.00857712      50.14517931
C       48.80544735      50.77718677      49.30306057
C       50.22883854      50.85160681      49.38695300
H       52.67590725      50.36553876      51.31955924
H       52.85541878      48.87930463      50.53008887
H       52.85242032      50.26767634      49.46580146
H       50.54558708      48.28222784      51.48599746
H       48.14912000      48.29229872      51.47038228
H       46.98423289      49.94777610      49.87930742
H       48.31694030      51.37340060      48.45170106
H       50.87214318      51.63439721      48.82150187
