15
Lattice="100.0 0.0 0.0 0.0 100.0 0.0 0.0 0.0 100.0" Properties=species:S:1:pos:R:3 Energy=-170008.28125 Energy_pyscf=-169993.1331974731 Energy_nn=-170008.796875 pbc="F F F"
C       52.32046811      49.93287807      50.32171883
C       50.87543224      50.16334436      50.42262292
C       50.09571769      49.30299895      51.09077141
C       48.74295245      49.19647361      51.00406673
C       48.08378203      50.17225564      50.06356480
C       48.93157824      50.98390010      49.19343250
C       50.37602049      51.04767041      49.43825899
H       52.79747765      50.24319962      49.46202335
H       52.88905867      50.81697416      50.80863574
H       52.95579093      49.01250721      50.40985381
H       50.81997835      48.41209923      51.58506449
H       48.01189810      48.57054487      51.58631054
H       47.16229485      50.40888310      49.94986218
H       48.42392075      51.44742204      48.24856171
H       51.07001653      51.61877157      48.83624081
