15
Lattice="100.0 0.0 0.0 0.0 100.0 0.0 0.0 0.0 100.0" Properties=species:S:1:pos:R:3 Energy=-170049.15625 Energy_pyscf=-170051.64024375516 Energy_nn=-170049.09375 pbc="F F F"
C       52.40783633      49.89126886      50.13792815
C       50.94032418      49.83122853      50.03333279
C       50.17165016      48.97895351      50.87029769
C       48.76921080      49.08653234      50.71778560
C       48.13278946      50.00149814      49.85854993
C       48.88425598      50.80165170      48.99992353
C       50.25670828      50.75528368      49.20034158
H       52.72411072      50.90778399      49.85004579
H       52.83619881      49.64125071      51.12879704
H       52.87084670      49.28038934      49.32153911
H       50.67012287      48.27465433      51.55978061
H       48.15593575      48.44431272      51.37180196
H       47.04740073      50.15258207      49.90846976
H       48.44075782      51.58278462      48.37265871
H       50.94261918      51.41173746      48.62038847
