15
Lattice="100.0 0.0 0.0 0.0 100.0 0.0 0.0 0.0 100.0" Properties=species:S:1:pos:R:3 Energy=-170017.671875 Energy_pyscf=-170018.6896721307 Energy_nn=-170018.171875 pbc="F F F"
C       52.62321393      49.85654417      50.05808527
C       51.06475283      49.98411161      50.08028546
C       50.31011074      49.07717865      50.87617274
C       48.95027374      48.98865885      50.63389568
C       48.26561306      49.80728630      49.52661039
C       48.98101867      50.84474221      48.89292041
C       50.35082075      50.93169838      49.29731838
H       52.96431167      50.08462498      49.01086304
H       53.09906459      50.60624465      50.61833866
H       52.85694614      48.78582609      50.21354786
H       50.63560177      48.43018323      51.79210649
H       48.26866899      48.58706667      51.33470351
H       47.18518686      49.89082440      49.62069146
H       48.55124864      51.55698193      48.26970831
H       50.93677679      51.48421517      48.72948780
