15
Lattice="100.0 0.0 0.0 0.0 100.0 0.0 0.0 0.0 100.0" Properties=species:S:1:pos:R:3 Energy=-170011.921875 Energy_pyscf=-170004.83689765958 Energy_nn=-170012.421875 pbc="F F F"
C       52.37971316      49.99466083      50.22064142
C       50.90524717      49.89939488      49.98979349
C       50.14884310      49.09560750      51.02123088
C       48.69156303      49.22796757      50.71254850
C       48.13992422      50.10097483      49.80917634
C       48.77938098      50.94607639      49.01195471
C       50.23664788      50.71179694      49.03502707
H       52.92173258      50.87145989      49.93848036
H       52.66766808      49.65072911      51.28281579
H       52.89038047      49.24880194      49.58730644
H       50.86165775      48.37862749      51.41835991
H       47.87351377      48.71520989      51.24061022
H       47.03546055      50.05941512      49.87660337
H       48.45173079      51.63833995      48.31879153
H       50.54366874      51.68121139      48.56429630
