15
Lattice="100.0 0.0 0.0 0.0 100.0 0.0 0.0 0.0 100.0" Properties=species:S:1:pos:R:3 Energy=-170033.984375 Energy_pyscf=-170040.3660637867 Energy_nn=-170034.0 pbc="F F F"
C       52.38332040      50.03347924      50.11477834
C       50.86724941      49.91994931      49.89361798
C       50.04919556      49.08744270      50.68104293
C       48.69687171      49.14958116      50.62077066
C       47.96057401      49.88962316      49.70466256
C       48.79198890      50.82987618      48.98094093
C       50.22777084      50.79365973      48.99828091
H       52.76852056      51.01799038      50.26710324
H       52.69093563      49.29832510      50.91908906
H       52.87424789      49.53237280      49.27027083
H       50.44640016      48.47303041      51.56832784
H       48.07981752      48.53667003      51.26398509
H       46.89148659      50.09386935      49.67911477
H       48.31566663      51.52722958      48.34865488
H       50.91370212      51.31747452      48.33684555
