15
Lattice="100.0 0.0 0.0 0.0 100.0 0.0 0.0 0.0 100.0" Properties=species:S:1:pos:R:3 Energy=-170030.6875 Energy_pyscf=-170038.65995463257 Energy_nn=-170030.796875 pbc="F F F"
C       52.54784566      49.94191352      50.18603381
C       51.03857752      49.99538462      50.16929828
C       50.17159630      49.15531719      51.00407384
C       48.83877428      49.19097187      50.91670149
C       48.17678095      50.04809062      49.97162284
C       49.02939014      50.77920688      49.23045818
C       50.40616648      50.78127244      49.28756328
H       53.04965796      50.22491752      49.28910988
H       52.92110231      50.67224065      50.94027123
H       52.75654204      48.93087945      50.52650708
H       50.80260260      48.45639452      51.57239926
H       48.23581766      48.44930278      51.41606452
H       47.14649890      50.05343450      49.69426936
H       48.71075645      51.45530137      48.43989033
H       50.91279191      51.41268920      48.56077994
