15
Lattice="100.0 0.0 0.0 0.0 100.0 0.0 0.0 0.0 100.0" Properties=species:S:1:pos:R:3 Energy=-170045.734375 Energy_pyscf=-170045.6696075412 Energy_nn=-170045.734375 pbc="F F F"
C       52.45035868      49.85416524      50.06467788
C       50.94210042      49.84931064      50.08139484
C       50.10449345      48.91455641      50.79709256
C       48.70752826      49.05797619      50.69626081
C       48.12175775      49.91512130      49.79219063
C       48.94225058      50.77544715      49.00533015
C       50.30905527      50.73880696      49.27439257
H       52.71195113      50.93553352      49.80798217
H       52.89431839      49.71586201      51.01296734
H       52.87807166      49.18653645      49.25026219
H       50.59128644      48.31951092      51.57513164
H       48.12398709      48.48701215      51.40924914
H       47.05910967      50.07141472      49.80605131
H       48.47232205      51.51838177      48.42524261
H       50.93710736      51.44881393      48.73075771
