15
Lattice="100.0 0.0 0.0 0.0 100.0 0.0 0.0 0.0 100.0" Properties=species:S:1:pos:R:3 Energy=-170024.453125 Energy_pyscf=-170016.13644810763 Energy_nn=-170025.125 pbc="F F F"
C       52.51143388      49.83051044      50.24729978
C       51.02492924      49.94168790      50.16947555
C       50.21963288      49.01863716      50.98158985
C       48.89556124      49.21964160      50.88628337
C       48.10308408      49.98285833      49.77620361
C       48.97949787      50.83969699      49.12557611
C       50.32715327      50.84003046      49.36682769
H       52.83773102      50.03367383      49.15220116
H       52.99873148      50.69691404      50.87257610
H       52.86642090      48.97307504      50.76426809
H       50.93714176      48.37913527      51.57701396
H       48.37174089      48.64160339      51.53757896
H       47.07147119      49.90634951      49.65311705
H       48.69852527      51.61819081      48.30864797
H       50.90135452      51.62948813      48.75797025
