15
Lattice="100.0 0.0 0.0 0.0 100.0 0.0 0.0 0.0 100.0" Properties=species:S:1:pos:R:3 Energy=-170033.390625 Energy_pyscf=-170035.201030927 Energy_nn=-170033.265625 pbc="F F F"
C       52.54531948      49.93559367      50.10480164
C       51.02082589      50.00921361      50.21024886
C       50.19035774      49.19633265      51.08436063
C       48.83045963      49.22423580      50.80850000
C       48.21086643      49.99404887      49.90429239
C       49.03754461      50.98682765      49.24353110
C       50.37793220      50.89336783      49.41900200
H       52.94474517      49.84483180      49.12112266
H       52.99787092      50.70208320      50.73672212
H       52.80580335      49.02149649      50.68867206
H       50.66170970      48.42416411      51.66182353
H       48.32824786      48.49901550      51.42526980
H       47.23965336      49.75588326      49.53683209
H       48.54488207      51.51368943      48.45566822
H       51.01270426      51.52977709      48.80245069
