15
Lattice="100.0 0.0 0.0 0.0 100.0 0.0 0.0 0.0 100.0" Properties=species:S:1:pos:R:3 Energy=-170009.4375 Energy_pyscf=-169984.30578328462 Energy_nn=-170009.6875 pbc="F F F"
C       52.23743539      50.23853303      50.31491180
C       50.84494896      50.19153750      50.16723506
C       50.11893088      49.16243826      50.70333023
C       48.76859706      49.26572097      50.81733651
C       48.03817901      50.22804431      49.90346874
C       48.87664843      51.11135177      49.21154105
C       50.22628939      51.10755878      49.40159426
H       52.62481937      49.59197920      49.48215543
H       52.69571146      51.27820785      50.46995053
H       52.89976978      49.69427294      50.91049007
H       50.70150218      48.30396204      51.36628245
H       48.05599831      48.77726576      51.53542972
H       47.05975145      50.22928691      49.93238935
H       48.52123859      51.71104383      48.17983386
H       50.60377819      51.73591244      48.48457027
