15
Lattice="100.0 0.0 0.0 0.0 100.0 0.0 0.0 0.0 100.0" Properties=species:S:1:pos:R:3 Energy=-170025.203125 Energy_pyscf=-170028.05059358993 Energy_nn=-170025.515625 pbc="F F F"
C       52.44846228      50.06005729      50.31891663
C       50.90975632      50.04144112      50.29388367
C       50.13918497      49.08098340      51.05304142
C       48.78363874      49.19542367      51.05579267
C       48.16904617      50.21925246      50.12550056
C       48.89657101      50.95916644      49.14307172
C       50.31939602      50.91381618      49.38001573
H       52.74045929      50.28016725      49.30184034
H       52.81512432      50.87213960      50.97638105
H       52.98636638      49.09906969      50.53366069
H       50.69932868      48.36837771      51.60469941
H       47.94805153      48.66178133      51.53350190
H       47.21771522      50.43110833      49.98240506
H       48.42919004      51.59993597      48.33885143
H       51.00942082      51.54177744      48.74071742
