15
Lattice="100.0 0.0 0.0 0.0 100.0 0.0 0.0 0.0 100.0" Properties=species:S:1:pos:R:3 Energy=-170009.046875 Energy_pyscf=-169985.44701001086 Energy_nn=-170009.34375 pbc="F F F"
C       52.34743274      49.90401608      50.19409389
C       50.83824940      50.09868984      50.21070677
C       50.05961905      49.34730611      50.96330722
C       48.77458409      49.01199583      50.68152659
C       48.10490374      49.96276945      49.80622447
C       48.84641531      50.85032942      48.93861377
C       50.17881494      51.09658523      49.40725596
H       52.76109258      48.90323267      50.27931030
H       52.61762491      50.64924001      49.38764905
H       52.59841454      50.29676935      51.24217341
H       50.56719236      48.56830628      51.52585341
H       47.93978255      48.71849394      51.38779907
H       47.15040633      50.11066870      50.04984871
H       48.18154714      51.73681703      48.64861281
H       50.88112390      51.61545419      48.66793987
