15
Lattice="100.0 0.0 0.0 0.0 100.0 0.0 0.0 0.0 100.0" Properties=species:S:1:pos:R:3 Energy=-170030.890625 Energy_pyscf=-170038.26666496758 Energy_nn=-170031.15625 pbc="F F F"
C       52.52689889      50.02240822      50.10961024
C       50.99690340      50.09845485      50.16641888
C       50.19525015      49.11548895      50.92465996
C       48.85684167      49.20853289      50.73191498
C       48.16976857      50.09093647      49.88613851
C       48.98023078      50.99124614      49.16775036
C       50.36133751      50.90615267      49.33154736
H       52.97464811      50.01626730      49.16124992
H       52.87121613      50.83843058      50.78393199
H       52.81331253      49.13475073      50.70742831
H       50.69812745      48.35188265      51.48187431
H       48.28696526      48.41898016      51.17649434
H       47.13809237      49.84879652      49.74866432
H       48.50579116      51.58456380      48.44320126
H       50.97077405      51.58769244      48.73649996
