15
Lattice="100.0 0.0 0.0 0.0 100.0 0.0 0.0 0.0 100.0" Properties=species:S:1:pos:R:3 Energy=-170018.0 Energy_pyscf=-170010.17257267458 Energy_nn=-170018.390625 pbc="F F F"
C       52.47574596      49.83224851      49.80644573
C       50.99366348      49.94684243      49.98317035
C       50.20610495      49.06810501      50.87459506
C       48.70192545      49.06515161      50.56937215
C       48.10190569      49.85157242      49.54650229
C       48.95736186      50.65189153      48.88297356
C       50.25826752      50.70983369      49.07850858
H       52.86625611      50.46658483      49.02690728
H       52.89305359      50.34800740      50.72251400
H       52.93023183      48.75005268      49.77413145
H       50.63034072      48.43839705      51.72225896
H       47.98671360      48.37835484      50.96052905
H       47.08275554      49.68537929      49.51869769
H       48.66531377      51.67607751      48.17583554
H       50.86155986      51.43700162      48.58691194
