15
Lattice="100.0 0.0 0.0 0.0 100.0 0.0 0.0 0.0 100.0" Properties=species:S:1:pos:R:3 Energy=-170040.671875 Energy_pyscf=-170045.1079044899 Energy_nn=-170040.671875 pbc="F F F"
C       52.55368413      50.06294376      50.01809536
C       51.01247771      49.98800923      50.10346028
C       50.25816320      49.10315756      50.92542931
C       48.85555803      49.18335590      50.73500505
C       48.22767213      50.06184718      49.82466107
C       49.01976298      50.95564543      49.08662569
C       50.38601785      50.96858950      49.33821488
H       53.04155689      51.04764128      49.88404439
H       52.91138791      49.61904033      50.97416551
H       52.91176950      49.27633066      49.31961538
H       50.66314914      48.27631919      51.47420402
H       48.22214502      48.48142722      51.29307718
H       47.18000078      49.98765892      49.63483199
H       48.56350570      51.57491855      48.38194164
H       51.07603076      51.63078255      48.68745549
