15
Lattice="100.0 0.0 0.0 0.0 100.0 0.0 0.0 0.0 100.0" Properties=species:S:1:pos:R:3 Energy=-170042.515625 Energy_pyscf=-170047.0157724655 Energy_nn=-170042.609375 pbc="F F F"
C       52.47825747      50.02188301      50.12561135
C       50.96375374      50.09756753      50.16052591
C       50.22917274      49.11193756      50.87463306
C       48.80875203      49.15405142      50.78427624
C       48.18397926      50.09043589      49.97177152
C       48.92690450      50.96006941      49.20544623
C       50.34452440      50.94509058      49.27603392
H       52.75557515      50.25681921      49.11268921
H       52.84578499      50.80767993      50.88729743
H       53.02189666      49.15762426      50.49813341
H       50.64982202      48.53431472      51.66483997
H       48.22598532      48.45972280      51.36471793
H       47.10155612      50.13244492      49.91971809
H       48.48478961      51.63458042      48.50323359
H       50.95907029      51.63474043      48.63781985
