15
Lattice="100.0 0.0 0.0 0.0 100.0 0.0 0.0 0.0 100.0" Properties=species:S:1:pos:R:3 Energy=-170046.6875 Energy_pyscf=-170041.97899939257 Energy_nn=-170046.671875 pbc="F F F"
C       52.49521062      49.89789724      50.19858468
C       51.00902057      49.95461732      50.14109060
C       50.24671141      49.10085456      50.96418760
C       48.82117355      49.18141819      50.71965936
C       48.12220981      50.10862499      49.89268381
C       48.88838522      50.91309227      49.07736868
C       50.33951228      50.84232517      49.22541837
H       52.85960730      50.08850037      49.21600080
H       52.95904242      50.80894388      50.74049434
H       52.99734794      48.94138096      50.57430941
H       50.71260165      48.42811533      51.69001084
H       48.25348011      48.35909390      51.18946682
H       47.09618775      50.05262990      49.66743799
H       48.51078396      51.60438105      48.32937673
H       51.02400876      51.52142414      48.62397313
