15
Lattice="100.0 0.0 0.0 0.0 100.0 0.0 0.0 0.0 100.0" Properties=species:S:1:pos:R:3 Energy=-170041.015625 Energy_pyscf=-170046.58052912276 Energy_nn=-170041.0 pbc="F F F"
C       52.36003029      49.86247734      50.23645851
C       50.86420660      49.91187297      49.95097555
C       50.07429582      49.13040844      50.76407897
C       48.68434727      49.00542846      50.63235302
C       48.04599270      49.92918046      49.80858396
C       48.82390613      50.84487636      49.07719913
C       50.24777633      50.87726750      49.09028528
H       52.68003411      49.30789003      51.16115390
H       52.83273519      49.18707099      49.45231199
H       52.78799177      50.82897304      50.12389521
H       50.61288031      48.32788512      51.35417794
H       48.08214827      48.28561213      51.12554445
H       46.97908751      49.96569519      49.69921131
H       48.35730117      51.64403749      48.48875162
H       50.77002351      51.59821846      48.49059327
