15
Lattice="100.0 0.0 0.0 0.0 100.0 0.0 0.0 0.0 100.0" Properties=species:S:1:pos:R:3 Energy=-170024.828125 Energy_pyscf=-170026.01601570763 Energy_nn=-170025.359375 pbc="F F F"
C       52.59245947      50.17362436      50.11660045
C       51.06831228      50.15778633      50.17923836
C       50.25655602      49.22457719      50.95083055
C       48.84526982      49.26203535      50.69168458
C       48.21342581      50.08337411      49.84367375
C       49.05403348      51.05964134      49.17234798
C       50.39096148      51.03649816      49.37118129
H       52.91617111      50.42050241      49.07602802
H       53.03013047      50.73343076      50.98148908
H       52.97362960      49.14243862      50.33060891
H       50.68764880      48.57626626      51.70114237
H       48.25995424      48.36126004      51.10178965
H       47.04224945      50.14124178      49.42669471
H       48.62622891      51.35575952      48.27883830
H       51.08600044      51.64783698      48.77325568
