15
Lattice="100.0 0.0 0.0 0.0 100.0 0.0 0.0 0.0 100.0" Properties=species:S:1:pos:R:3 Energy=-170041.015625 Energy_pyscf=-170038.1235823281 Energy_nn=-170040.953125 pbc="F F F"
C       52.57299188      49.77258979      50.06887979
C       51.05371639      49.95246400      49.96884014
C       50.25617053      49.11205433      50.74292995
C       48.80962934      49.09770572      50.71618936
C       48.19269252      49.90547292      49.80932583
C       49.05578318      50.78565855      49.01573961
C       50.43800779      50.96932737      49.19950058
H       52.95091315      50.17198585      49.09664164
H       53.01469645      50.58441866      50.73154559
H       52.98515554      48.81098878      50.26437904
H       50.61790745      48.46854861      51.59339860
H       48.28607604      48.42478923      51.35831631
H       47.19190188      49.93398642      49.62642159
H       48.59717975      51.38902122      48.23550632
H       51.04590336      51.59593741      48.55391208
