15
Lattice="100.0 0.0 0.0 0.0 100.0 0.0 0.0 0.0 100.0" Properties=species:S:1:pos:R:3 Energy=-170042.203125 Energy_pyscf=-170040.51761782935 Energy_nn=-170042.078125 pbc="F F F"
C       52.55046121      49.80510665      50.05093183
C       51.04698763      49.88381814      49.98514419
C       50.24816251      48.97327112      50.78300136
C       48.88575419      49.19583408      50.71048421
C       48.23971459      49.94784503      49.67843784
C       49.01980313      50.82774471      49.01883189
C       50.41235739      50.80285494      49.24359177
H       52.92457206      50.19111474      49.04016100
H       52.97172826      50.62019210      50.72854031
H       53.01469829      48.81692092      50.24363012
H       50.63652049      48.43416807      51.65918807
H       48.32279689      48.52003365      51.42047323
H       47.19265015      49.87674473      49.56271536
H       48.58802471      51.47086932      48.23968372
H       50.99707438      51.56886332      48.63084454
