15
Lattice="100.0 0.0 0.0 0.0 100.0 0.0 0.0 0.0 100.0" Properties=species:S:1:pos:R:3 Energy=-170028.859375 Energy_pyscf=-170034.84130268695 Energy_nn=-170029.03125 pbc="F F F"
C       52.53037786      49.99585269      50.16533083
C       51.02102511      50.05868011      50.14291747
C       50.16770711      49.17132443      50.97315870
C       48.85812483      49.23935084      50.77956414
C       48.19134849      50.06113512      49.93717314
C       48.94859027      50.98537779      49.18139736
C       50.34730909      50.82175627      49.28521403
H       53.03740585      50.14019066      49.23086026
H       52.85774986      50.82155758      50.82264080
H       52.80451832      49.03010455      50.55150014
H       50.72891594      48.45753999      51.55607677
H       48.23407528      48.38419334      51.12289132
H       47.18089423      49.81480551      49.70223704
H       48.56681184      51.69655342      48.49431353
H       50.86273162      51.53030878      48.62819127
