15
Lattice="100.0 0.0 0.0 0.0 100.0 0.0 0.0 0.0 100.0" Properties=species:S:1:pos:R:3 Energy=-170036.0 Energy_pyscf=-170032.66879787858 Energy_nn=-170036.125 pbc="F F F"
C       52.41852619      49.98060182      50.27194446
C       50.93457989      49.91481441      50.00206104
C       50.09878770      49.00923144      50.74230785
C       48.76103830      49.20938602      50.68818830
C       48.06219282      50.06968140      49.73645979
C       48.87901176      50.83336700      48.98234045
C       50.20830268      50.89755044      49.25123886
H       52.87032848      48.94174175      50.23267720
H       52.92495383      50.56260272      49.41316944
H       52.76224980      50.59798902      51.09215650
H       50.71025950      48.46243048      51.50287856
H       48.01385215      48.56459849      51.26624320
H       46.89464066      50.07519678      49.60768777
H       48.40397524      51.62765384      48.38614831
H       50.74386853      51.56986500      48.54844879
