15
Lattice="100.0 0.0 0.0 0.0 100.0 0.0 0.0 0.0 100.0" Properties=species:S:1:pos:R:3 Energy=-170018.234375 Energy_pyscf=-170014.98548182845 Energy_nn=-170018.78125 pbc="F F F"
C       52.54122097      50.11153292      50.14032232
C       51.08441686      49.88123502      49.97432669
C       50.31028030      49.00207867      50.72311355
C       48.78390157      49.25780387      50.66222760
C       48.20129363      50.17916490      49.87476771
C       49.06778092      50.93168154      49.13123090
C       50.41499488      50.84980450      49.16537543
H       52.90456034      50.73371538      49.36578624
H       52.76948605      50.67363683      51.09663824
H       53.00514058      49.09961357      50.24272824
H       50.64755477      48.47501735      51.58384692
H       48.40367146      48.65668782      51.41825678
H       47.15286104      50.17466621      49.27834488
H       48.54712506      51.57447025      48.41464460
H       50.99540764      51.49958775      48.59508957
