15
Lattice="100.0 0.0 0.0 0.0 100.0 0.0 0.0 0.0 100.0" Properties=species:S:1:pos:R:3 Energy=-170039.71875 Energy_pyscf=-170036.7154549275 Energy_nn=-170039.828125 pbc="F F F"
C       52.38167138      49.99911397      50.15018214
C       50.89603310      50.04005708      49.95559702
C       50.09357192      49.10842222      50.74189955
C       48.70597168      49.19707556      50.72600883
C       48.05698509      49.91008513      49.73354293
C       48.84305922      50.87428880      49.08977953
C       50.29615895      50.93337869      49.10303205
H       52.71557811      48.95211610      50.21735908
H       53.05738702      50.65675979      49.47467163
H       52.71640170      50.50576450      51.12134209
H       50.51815939      48.41766403      51.57138272
H       48.14667757      48.47434993      51.36667467
H       47.00279954      50.05565793      49.61924069
H       48.29886263      51.66269822      48.36605002
H       50.93239580      51.53350088      48.48668434
