15
Lattice="100.0 0.0 0.0 0.0 100.0 0.0 0.0 0.0 100.0" Properties=species:S:1:pos:R:3 Energy=-170027.421875 Energy_pyscf=-170016.90746186185 Energy_nn=-170027.484375 pbc="F F F"
C       52.32797208      50.02789633      50.28518932
C       50.82146284      50.05305790      50.19234980
C       50.07922589      49.15741399      51.06606467
C       48.72531608      49.07452084      50.70925004
C       48.01597326      50.04811037      49.83128297
C       48.65997962      50.89314476      49.06077391
C       50.15091074      50.85429112      49.24318226
H       52.88349124      49.08522583      50.09680005
H       52.81685680      50.66060405      49.46212307
H       52.58122256      50.37508294      51.30860627
H       50.52129413      48.44932698      51.73942996
H       48.04479972      48.45592119      51.39168379
H       47.01924451      50.30979247      49.90838861
H       48.38071927      52.00790089      48.66667990
H       50.70774258      51.44956320      48.52427970
