15
Lattice="100.0 0.0 0.0 0.0 100.0 0.0 0.0 0.0 100.0" Properties=species:S:1:pos:R:3 Energy=-170039.390625 Energy_pyscf=-170037.29305584726 Energy_nn=-170039.75 pbc="F F F"
C       52.46042578      49.99795141      50.24111557
C       50.94773904      49.97296496      49.96346134
C       50.11255842      49.02420861      50.61311512
C       48.72369927      49.23331501      50.76156736
C       47.99742770      50.02703181      49.82687261
C       48.84083106      50.81460010      49.06762443
C       50.30727586      50.85612134      49.11062157
H       52.89817737      48.98515110      50.20878267
H       52.98650743      50.72379104      49.50130969
H       52.70959848      50.51983548      51.15434427
H       50.51172380      48.37200903      51.37036082
H       47.98408166      48.64156819      51.37167122
H       46.96083828      50.06573618      49.72507953
H       48.45735577      51.52619439      48.31444909
H       50.82134339      51.60067488      48.47944030
