15
Lattice="100.0 0.0 0.0 0.0 100.0 0.0 0.0 0.0 100.0" Properties=species:S:1:pos:R:3 Energy=-170036.59375 Energy_pyscf=-170038.3684286042 Energy_nn=-170036.671875 pbc="F F F"
C       52.53605540      49.90850180      50.18528595
C       51.01046378      49.93483329      50.12888273
C       50.09754325      49.20351792      50.93612721
C       48.75736958      49.02986802      50.70085406
C       48.18201794      49.98759468      49.82627011
C       48.98860902      51.00602232      49.12219416
C       50.42575233      50.91164832      49.23295984
H       52.94320427      49.72607874      49.23923657
H       52.94439892      50.87251651      50.56864582
H       53.02447680      49.03954955      50.73600055
H       50.62009469      48.58593598      51.61290462
H       48.30924631      48.23436368      51.21511061
H       47.06383284      49.97173569      49.69261509
H       48.46917876      51.78035374      48.50010602
H       51.00463342      51.59122040      48.59741506
