15
Lattice="100.0 0.0 0.0 0.0 100.0 0.0 0.0 0.0 100.0" Properties=species:S:1:pos:R:3 Energy=-170032.734375 Energy_pyscf=-170039.99699909455 Energy_nn=-170032.921875 pbc="F F F"
C       52.32798974      50.03341991      50.10492871
C       50.83557734      49.89581540      49.85518268
C       50.01875053      49.09545333      50.74394633
C       48.66901835      49.09037285      50.61118924
C       47.98418228      49.91474042      49.63066192
C       48.81964898      50.78380139      48.96271917
C       50.23200344      50.76433078      48.98905289
H       52.71471953      51.04883453      50.20251084
H       52.57669825      49.35026442      50.88251069
H       52.89851771      49.49654462      49.24432891
H       50.51583598      48.49492506      51.55204501
H       48.07218562      48.56763177      51.31602682
H       46.91590295      50.06565072      49.68900849
H       48.43876320      51.60162312      48.42013229
H       50.93563671      51.33819488      48.39410513
