15
Lattice="100.0 0.0 0.0 0.0 100.0 0.0 0.0 0.0 100.0" Properties=species:S:1:pos:R:3 Energy=-170025.46875 Energy_pyscf=-170031.79395552832 Energy_nn=-170025.859375 pbc="F F F"
C       52.47264607      49.95573154      50.14947757
C       50.96455260      50.07438143      50.21936616
C       50.21868415      49.03031345      50.86120991
C       48.72573882      49.11620896      50.74772909
C       48.14846816      50.00971203      49.93899703
C       48.91354147      50.89219441      49.12606871
C       50.26345835      50.93383019      49.41380296
H       52.84505086      50.72252728      49.50103461
H       52.82231656      50.09176638      51.19246568
H       52.86489695      49.01674415      49.79492185
H       50.66611100      48.36373136      51.49893305
H       48.24152760      48.52185085      51.44346163
H       47.07074049      50.20287944      49.94859947
H       48.55835840      51.51350202      48.29732511
H       50.77508090      51.47150584      48.61016919
