15
Lattice="100.0 0.0 0.0 0.0 100.0 0.0 0.0 0.0 100.0" Properties=species:S:1:pos:R:3 Energy=-170018.40625 Energy_pyscf=-170019.62082582596 Energy_nn=-170018.796875 pbc="F F F"
C       52.44803457      50.07292257      50.09859801
C       50.97191579      50.11476823      50.16368113
C       50.25048741      49.24468972      51.02065009
C       48.79611065      49.23281352      50.82617786
C       48.10039318      50.08898733      49.95144610
C       48.96626361      50.91478634      49.12649794
C       50.23226252      50.88793303      49.27555970
H       52.83477288      50.47336218      49.21300787
H       52.75074068      50.61672155      51.00354030
H       53.00290164      49.07326436      50.15569455
H       50.56266360      48.46860025      51.75882227
H       48.45235622      48.46310788      51.48210836
H       47.07169262      50.06693516      49.91717426
H       48.65037372      51.76810396      48.28916385
H       50.87978265      51.57135759      48.71927582
