21
Lattice="100.0 0.0 0.0 0.0 100.0 0.0 0.0 0.0 100.0" Properties=species:S:1:pos:R:3 Energy=-406274.6233666848 Energy_pyscf=-406261.5479828884 pbc="F F F"
C       52.29446306      49.57163984      49.96512115
C       50.96426585      51.86681310      49.40074595
C       52.87110452      50.41742312      49.18416630
C       52.30596031      51.59549810      48.88094709
C       46.82861172      51.21955620      50.92072429
C       50.97144010      49.82452423      50.61835008
C       50.42673366      51.09205740      50.45408903
O       49.48510325      48.68349208      52.14602278
O       48.05885439      50.74060354      48.88639259
O       50.90944859      47.35475388      51.08648507
C       50.38819574      48.57830840      51.31340001
C       48.02303889      51.02157344      50.04024211
O       49.15423366      51.55752893      50.80085745
H       50.37089193      46.76299788      51.65529544
H       52.75968628      48.61139371      50.17312511
H       50.34300210      52.71256003      49.25750173
H       53.80425108      50.30119249      48.72019922
H       52.55065573      52.33991431      48.09384620
H       46.77050107      50.33334730      51.55067631
H       47.03482298      51.99179274      51.66267259
H       45.90148430      51.29549347      50.34106915
