21
Lattice="100.0 0.0 0.0 0.0 100.0 0.0 0.0 0.0 100.0" Properties=species:S:1:pos:R:3 Energy=-406277.9111017617 Energy_pyscf=-406263.6553461891 pbc="F F F"
C       52.50906706      49.84417973      49.88343252
C       50.92533069      51.46426453      48.25823816
C       53.01776278      50.86145078      49.16365109
C       52.28889551      51.64682069      48.27049016
C       46.65140993      51.49408950      49.94236370
C       51.11824625      49.76542886      50.02412656
C       50.24273568      50.62226930      49.33655142
O       49.50429009      49.03176033      51.40243602
O       48.64555331      52.30552757      51.02219200
O       51.43487872      47.74564016      51.38434556
C       50.60088059      48.83250754      50.94607016
C       48.16268256      51.56689742      50.11130915
O       48.88832680      50.69416023      49.34562291
H       50.94406540      47.35684010      52.20284636
H       53.22344766      49.14390017      50.27465904
H       50.14193615      51.97423336      47.68646121
H       54.08754700      51.10236527      49.03349782
H       52.80578563      52.37300713      47.60055310
H       46.17482029      50.86888370      50.64702686
H       46.40343425      52.59721943      49.86009753
H       46.54127010      51.01143309      48.91637161
