21
Lattice="100.0 0.0 0.0 0.0 100.0 0.0 0.0 0.0 100.0" Properties=species:S:1:pos:R:3 Energy=-406273.5402981432 Energy_pyscf=-406253.60715387313 pbc="F F F"
C       52.22918695      49.40043385      49.77772495
C       50.84549303      51.21483522      48.22082820
C       52.86709385      50.12849058      48.79266870
C       52.28494731      51.10464426      48.02867814
C       46.70261243      50.80196694      50.04296735
C       50.87583347      49.62352391      50.10564158
C       50.06131109      50.49287371      49.27668363
O       49.06091649      48.16303869      51.01831661
O       48.71186652      51.19978989      51.24207692
O       51.10997358      48.40167194      52.05663342
C       50.24321729      48.74808662      51.09728258
C       48.09973204      50.79052068      50.27464842
O       48.79166661      50.38058238      49.09790712
H       50.70243872      47.47938480      52.37024146
H       52.70397286      48.69402937      50.38612033
H       50.24813570      51.98663901      47.71568099
H       53.89309227      49.90476518      48.79986719
H       53.03629044      51.73490044      47.49766256
H       46.54229020      50.10312935      49.09085606
H       46.11586125      50.57033944      50.89304757
H       46.30126663      51.77489022      49.70978129
