21
Lattice="100.0 0.0 0.0 0.0 100.0 0.0 0.0 0.0 100.0" Properties=species:S:1:pos:R:3 Energy=-406279.4927757346 Energy_pyscf=-406268.05106804316 pbc="F F F"
C       52.25281685      49.57349399      49.96717942
C       51.06911051      52.04808539      49.52558653
C       52.79234468      50.42784666      49.04139624
C       52.31526094      51.68683749      48.86404398
C       46.82269388      51.19645179      51.02894020
C       50.92267351      49.83593187      50.47214992
C       50.32798138      51.12120328      50.24846230
O       49.40824478      48.97613787      51.99645995
O       47.95343436      50.20952634      49.13929798
O       50.76267806      47.38844734      50.93365925
C       50.31591162      48.70865533      51.15639992
C       48.02275913      50.81579536      50.20105973
O       49.20310271      51.28611727      50.81721599
H       50.21004753      46.90606007      51.63157128
H       52.90871561      48.73911527      50.38692929
H       50.54671728      52.99634922      49.31085169
H       53.81134061      50.20409625      48.78994645
H       52.83725141      52.31013139      48.09065889
H       46.69963113      50.27326887      51.64845624
H       47.12945449      52.07073597      51.57902381
H       45.94437999      51.19336619      50.37110168
