21
Lattice="100.0 0.0 0.0 0.0 100.0 0.0 0.0 0.0 100.0" Properties=species:S:1:pos:R:3 Energy=-406276.21835541294 Energy_pyscf=-406275.55056419736 pbc="F F F"
C       52.31746972      49.34499473      49.64590619
C       51.31497155      51.99733017      49.36545560
C       52.95885373      50.33655219      48.99865800
C       52.41450112      51.63999672      48.75134338
C       46.96241542      51.39050604      50.94151238
C       51.08215551      49.65611944      50.27959216
C       50.55576207      50.94934324      49.98686844
O       49.10454698      48.81315150      51.34882157
O       47.93894689      50.37634678      48.90818522
O       51.18887203      47.66854107      51.43798892
C       50.34322247      48.72283756      51.07608979
C       48.09441562      50.87349260      49.95453733
O       49.31650553      51.27961227      50.53560060
H       50.61741896      47.16790316      52.09996347
H       52.75532102      48.40026200      49.90211731
H       50.92028732      53.01698949      49.40000905
H       53.91845251      50.05054635      48.58526152
H       52.92052559      52.21808257      47.96092814
H       45.97973571      51.36603777      50.46162810
H       46.81963405      50.57702687      51.60795758
H       47.18311140      52.28373947      51.54416374
