21
Lattice="100.0 0.0 0.0 0.0 100.0 0.0 0.0 0.0 100.0" Properties=species:S:1:pos:R:3 Energy=-406271.5587948649 Energy_pyscf=-406238.7983813264 pbc="F F F"
C       52.51742726      49.79319953      49.79392170
C       50.78821543      51.63930712      48.49835042
C       52.98892999      50.73877149      48.97443307
C       52.11371989      51.61984512      48.28181403
C       46.70577037      51.49336405      49.76540963
C       51.20889030      49.70456484      50.07706739
C       50.32621783      50.69804690      49.47020085
O       49.49780783      48.73330259      51.58869657
O       48.56734935      52.70103353      50.68473856
O       51.52078435      47.68684391      51.39919553
C       50.74456172      48.66441756      51.04849652
C       48.25942540      51.82088256      50.01312940
O       49.06820471      50.80420985      49.63036442
H       51.30550249      47.34307348      52.31287642
H       53.14631567      48.94163605      50.27573863
H       50.13537794      52.12029404      47.77171661
H       54.00323192      50.96470761      48.92358767
H       52.71518122      52.38592254      47.68996813
H       46.10244500      50.77123041      50.33628598
H       46.09808734      52.42309404      50.02135621
H       46.46260346      51.28082247      48.71431089
