21
Lattice="100.0 0.0 0.0 0.0 100.0 0.0 0.0 0.0 100.0" Properties=species:S:1:pos:R:3 Energy=-406275.7850254047 Energy_pyscf=-406263.17740905256 pbc="F F F"
C       52.58735300      49.86393589      49.63262384
C       50.86953328      52.01801699      48.84185271
C       53.02624749      50.85588131      48.81357632
C       52.25225283      52.01544900      48.61764782
C       46.65062486      51.23842141      50.06000287
C       51.17043214      49.92675079      50.11723692
C       50.44417698      50.93830910      49.62996891
O       49.54502506      49.02673022      51.74691916
O       48.37978037      52.87519728      49.96170877
O       51.28715615      47.78855528      51.00409718
C       50.54595030      48.84941644      50.98556105
C       48.09981251      51.69660921      49.89662418
O       48.94989216      50.69877663      49.77698322
H       50.73226074      47.05709399      51.25276629
H       53.25793619      48.96736864      49.83079230
H       50.29182492      52.88555014      48.72300445
H       54.02294949      50.92663216      48.45079767
H       52.60489611      52.78629056      48.02380725
H       45.77461530      51.79488611      49.82850079
H       46.43850429      50.17269197      49.69247471
H       46.69964163      51.09136513      51.12847116
