21
Lattice="100.0 0.0 0.0 0.0 100.0 0.0 0.0 0.0 100.0" Properties=species:S:1:pos:R:3 Energy=-406269.5849148528 Energy_pyscf=-406264.60701010335 pbc="F F F"
C       52.31491327      49.47793456      49.71721984
C       50.94962496      51.94090861      49.47286434
C       52.84362324      50.54313687      48.91228488
C       52.11479343      51.68557769      48.77495202
C       46.73621117      51.76269878      50.52512568
C       51.12854954      49.65586889      50.34041555
C       50.34557170      50.91471783      50.30391011
O       49.35157961      48.46922017      51.30535965
O       48.10765854      50.88510503      48.73005923
O       51.39078576      47.67497098      51.52216988
C       50.50687802      48.57571918      51.01256920
C       48.01391341      51.15512959      49.95812980
O       49.06701828      51.16378726      50.87657929
H       50.79393795      46.96073716      51.91721881
H       52.74366178      48.63652263      50.12527989
H       50.51866113      52.92626792      49.49473182
H       53.79321857      50.34634631      48.59023803
H       52.48899383      52.38794637      47.99858466
H       45.98232840      52.23132275      49.77585603
H       46.29967902      50.92871024      51.11352331
H       46.89403780      52.52705536      51.33272275
