21
Lattice="100.0 0.0 0.0 0.0 100.0 0.0 0.0 0.0 100.0" Properties=species:S:1:pos:R:3 Energy=-406269.88685520104 Energy_pyscf=-406228.3249347534 pbc="F F F"
C       52.22181977      50.08107073      50.47307738
C       50.74235918      51.38353271      48.37834429
C       52.76635956      50.91271376      49.44046842
C       52.11965297      51.54182123      48.37541874
C       46.65363022      51.08216096      50.65226852
C       50.75336216      49.81698204      50.36816352
C       49.99591683      50.64986939      49.44434422
O       48.88231967      48.78848235      51.47207919
O       48.75725048      52.16380680      51.18706751
O       50.98260270      47.98829985      51.79092394
C       50.27194968      48.94430211      51.30203770
C       48.16495630      51.37013521      50.59704160
O       48.69156640      50.63733059      49.38429294
H       50.79105110      47.65729952      52.66110432
H       52.75060988      49.50588333      51.19796297
H       50.18064882      51.77315078      47.48952313
H       53.82311678      50.83498636      49.53410832
H       52.59684382      51.86756880      47.42355660
H       46.87552010      50.13786020      51.15631514
H       45.91115160      51.66817274      51.25332812
H       46.17510087      50.68065344      49.66237021
