21
Lattice="100.0 0.0 0.0 0.0 100.0 0.0 0.0 0.0 100.0" Properties=species:S:1:pos:R:3 Energy=-406275.88217559375 Energy_pyscf=-406271.2762066894 pbc="F F F"
C       52.51499278      49.84668687      49.92502365
C       50.72881567      51.53722300      48.51025781
C       52.97998078      50.78100117      49.00115745
C       52.11879689      51.58233729      48.23530040
C       46.76145239      51.56515212      49.83489461
C       51.02457191      49.73006214      50.08653497
C       50.15609405      50.49875325      49.30322512
O       49.51815621      48.61749211      51.60021197
O       48.77587771      52.44204390      50.74210184
O       51.66666889      47.99028756      51.49630205
C       50.60269836      48.77809635      51.09029963
C       48.23551241      51.64651830      49.98833624
O       48.76872478      50.56824105      49.42729719
H       51.17188072      47.49124101      52.20577594
H       53.24523551      49.02063870      50.30008249
H       50.15567121      52.27293174      47.83368776
H       54.09294640      50.90560278      49.03965462
H       52.66616232      52.40408070      47.59872902
H       46.25716594      50.66035172      50.22559565
H       46.36208122      52.46411465      50.19415245
H       46.49604915      51.52423010      48.67650922
