21
Lattice="100.0 0.0 0.0 0.0 100.0 0.0 0.0 0.0 100.0" Properties=species:S:1:pos:R:3 Energy=-406268.45075232117 Energy_pyscf=-406267.7463913881 pbc="F F F"
C       52.30848197      49.90716024      50.16740214
C       50.88297443      51.51453236      48.33790744
C       52.96976342      50.63258354      49.17728426
C       52.28894640      51.45240156      48.35305633
C       46.57800921      50.76271344      50.62131165
C       50.86758886      49.96719964      50.21094488
C       50.08849878      50.90229366      49.43636309
O       49.00485387      48.78746152      51.43997253
O       48.28472591      52.42177678      51.20327672
O       51.17720536      48.26301052      51.89786588
C       50.22987231      49.00419925      51.18621716
C       47.88782280      51.47504789      50.56903142
O       48.65663964      51.05494487      49.28410045
H       50.50903660      47.63010240      52.25616611
H       52.79307749      49.20260140      50.82396735
H       50.43233877      52.19922081      47.67210927
H       54.09796212      50.50996007      49.16334596
H       52.85159808      51.98469136      47.68683728
H       46.76676604      49.74151106      50.71756895
H       45.92144939      51.18547023      51.44180796
H       45.97541970      50.76525246      49.74113583
