21
Lattice="100.0 0.0 0.0 0.0 100.0 0.0 0.0 0.0 100.0" Properties=species:S:1:pos:R:3 Energy=-406280.8853933003 Energy_pyscf=-406274.68672029907 pbc="F F F"
C       52.48949766      49.20606824      49.78918585
C       51.18739624      51.54307798      49.39995020
C       53.14649841      50.23479428      49.06426778
C       52.38318206      51.39277891      48.77625508
C       47.01622481      51.03520829      50.75801088
C       51.10899680      49.24265598      50.30439646
C       50.53999307      50.46730426      50.07708975
O       51.31018477      47.45215897      51.99010408
O       48.30681326      50.15131406      48.70541373
O       49.32255925      48.16488433      51.40044379
C       50.67550024      48.21833198      51.31388436
C       48.24033395      50.63180741      49.87003056
O       49.32151691      50.76940111      50.70015212
H       49.12994953      47.26317940      51.68086420
H       53.11855894      48.34145945      50.00505900
H       50.55320566      52.47346946      49.40146325
H       54.10211578      50.05056299      48.52042954
H       52.59688452      52.01848918      47.91423258
H       46.79292495      50.27220146      51.44705390
H       47.35023018      52.01032553      51.17499518
H       46.15125333      51.16936429      50.08390704
