21
Lattice="100.0 0.0 0.0 0.0 100.0 0.0 0.0 0.0 100.0" Properties=species:S:1:pos:R:3 Energy=-406270.85892295116 Energy_pyscf=-406266.53842404607 pbc="F F F"
C       52.44110687      49.39504843      49.56621870
C       51.18284128      51.93060293      49.54365579
C       52.93564600      50.47769477      48.76101516
C       52.31842954      51.74870113      48.73780583
C       46.83337572      51.48124235      50.71744841
C       51.23061372      49.66716769      50.23243619
C       50.50852700      50.89869001      50.12984811
O       49.49263926      48.17069393      50.85203045
O       48.26103878      51.62347110      48.80579633
O       51.62250574      47.80363734      51.78803631
C       50.64302125      48.52052881      50.90876406
C       48.11112229      51.27813907      49.93520762
O       49.28204584      51.02084267      50.74916855
H       51.14221075      47.06598095      52.10758224
H       53.01112794      48.51291222      49.80569869
H       50.63708463      52.88173474      49.68866253
H       53.73631357      50.12595567      48.26069889
H       52.54249389      52.61139498      48.08654770
H       46.46262858      52.37481673      50.29538956
H       46.10521636      50.64273682      50.60597193
H       46.86054707      51.63975195      51.74217769
