21
Lattice="100.0 0.0 0.0 0.0 100.0 0.0 0.0 0.0 100.0" Properties=species:S:1:pos:R:3 Energy=-406274.05741821893 Energy_pyscf=-406277.4065387713 pbc="F F F"
C       52.21985381      49.11057733      48.99324761
C       51.32900963      51.75889381      48.95514981
C       52.91544939      50.12787604      48.32000892
C       52.49831035      51.44968309      48.28918053
C       46.76106819      51.10243553      50.40310597
C       51.06120727      49.45493290      49.79529777
C       50.62026278      50.76437491      49.65124624
O       50.72748890      47.10525911      50.46781678
O       48.14726385      50.19298650      48.54340479
O       49.75177440      48.66181974      51.74879423
C       50.47492811      48.31332621      50.62576312
C       48.15336126      50.72102931      49.64149230
O       49.41184681      51.16016834      50.31611551
H       49.66621571      47.80897937      52.21687195
H       52.61412418      48.12954166      48.89100386
H       50.68930439      52.62846780      48.75273746
H       53.79453856      49.91941152      47.74208318
H       53.12049847      52.16309747      47.72956102
H       46.10475298      50.29264504      50.27202200
H       46.94777207      51.53605886      51.38700524
H       46.40879047      51.78330159      49.62723954
