21
Lattice="100.0 0.0 0.0 0.0 100.0 0.0 0.0 0.0 100.0" Properties=species:S:1:pos:R:3 Energy=-406287.57998813945 Energy_pyscf=-406282.78137556446 pbc="F F F"
C       52.19307552      49.60986069      50.09462925
C       51.10564079      52.02130084      49.45561254
C       52.85396513      50.41649658      49.09057789
C       52.25721814      51.65815753      48.78700021
C       46.86826116      51.12523511      51.05599176
C       50.94588659      49.87900887      50.51509396
C       50.41073278      51.17684974      50.21851682
O       49.28388368      48.81418595      51.95593014
O       48.16876944      50.33523502      49.10874979
O       50.83088664      47.48957609      50.95620133
C       50.17616935      48.70612853      51.16633256
C       48.06282608      50.94118623      50.12561337
O       49.20720751      51.46426754      50.68345864
H       50.34109870      46.85411851      51.55835400
H       52.70801231      48.66602457      50.41557238
H       50.59777755      52.96767742      49.22418282
H       53.87768529      50.14137173      48.73563504
H       52.75666970      52.29867030      48.08782793
H       46.75173166      50.27792711      51.78388514
H       46.90700776      51.98350053      51.70722999
H       45.91721976      51.10082153      50.44232063
