21
Lattice="100.0 0.0 0.0 0.0 100.0 0.0 0.0 0.0 100.0" Properties=species:S:1:pos:R:3 Energy=-406270.34219259967 Energy_pyscf=-406257.578564439 pbc="F F F"
C       52.27548554      50.30268612      50.47712342
C       50.61719716      51.64656315      48.63199642
C       52.86330595      50.98382224      49.46114628
C       51.95105249      51.56323287      48.54090498
C       46.46359345      51.08230365      50.66559304
C       50.86832722      50.25212459      50.59301716
C       50.05363244      50.89723119      49.60509314
O       48.94381025      49.36174065      51.82686026
O       48.48241692      52.12603685      51.66172253
O       50.88217243      48.18765806      51.61363605
C       50.07459786      49.24646002      51.48055459
C       47.95961015      51.49527939      50.66971573
O       48.71241520      51.11328445      49.65777879
H       50.53076598      47.34532140      52.06299870
H       52.79065812      49.87538508      51.31711863
H       50.07587567      52.06587998      47.80399329
H       53.91933369      50.94973100      49.26104031
H       52.51426765      52.02696039      47.63624975
H       46.18672946      50.10704426      50.84200095
H       45.96556468      51.63147082      51.48631953
H       46.22893101      51.41419520      49.65772550
