21
Lattice="100.0 0.0 0.0 0.0 100.0 0.0 0.0 0.0 100.0" Properties=species:S:1:pos:R:3 Energy=-406263.1292830537 Energy_pyscf=-406240.96726000524 pbc="F F F"
C       52.55090581      49.41217430      49.42088277
C       51.08883512      51.85214687      49.18353374
C       52.97311976      50.45865868      48.56001635
C       52.32283273      51.62804463      48.50988263
C       46.91715567      51.38720173      50.53000691
C       51.35356717      49.69572713      50.14845613
C       50.57837800      50.79156513      49.89362553
O       49.81584159      48.15165655      50.34452587
O       48.26277247      51.74741398      48.66390354
O       51.53883860      47.75784358      51.75134866
C       50.79134860      48.47804768      50.84556563
C       48.28266783      51.17950631      49.85753673
O       49.36627497      50.89886019      50.57424134
H       50.94844658      47.21347881      52.26689390
H       53.23634214      48.61792535      49.51676733
H       50.59479129      52.80500394      48.90961860
H       53.69732025      50.27309549      47.76982489
H       52.88423037      52.34700680      48.06823031
H       46.40970998      52.21016253      49.92938237
H       46.32843357      50.48852560      50.30437439
H       47.06276320      51.46590735      51.61658110
