21
Lattice="100.0 0.0 0.0 0.0 100.0 0.0 0.0 0.0 100.0" Properties=species:S:1:pos:R:3 Energy=-406284.55088657176 Energy_pyscf=-406278.55700321594 pbc="F F F"
C       52.44863812      49.43615084      49.93090533
C       51.30231888      51.87723285      49.25799279
C       53.04046438      50.28864326      49.04853937
C       52.52004476      51.51604971      48.76132174
C       46.94641084      51.37929207      50.79115039
C       51.22689293      49.74164679      50.42397205
C       50.57526313      50.86992685      50.03537995
O       49.64189079      48.98308270      51.92852389
O       48.21865805      49.95837887      49.16346302
O       51.07230991      47.46858377      51.08702057
C       50.59180480      48.73652359      51.27192661
C       48.12719153      50.75854939      50.05583825
O       49.38796468      51.29479331      50.64371839
H       50.65155695      47.03038857      51.85743283
H       52.88648097      48.47312461      50.03362995
H       50.82511755      52.78674294      49.07247615
H       53.89707671      49.88494195      48.49207515
H       53.05446149      52.24252829      48.09395166
H       47.03777511      51.36218188      51.86339928
H       46.81136183      52.36581360      50.37100179
H       46.02149261      50.76745446      50.61902493
