21
Lattice="100.0 0.0 0.0 0.0 100.0 0.0 0.0 0.0 100.0" Properties=species:S:1:pos:R:3 Energy=-406277.6766783481 Energy_pyscf=-406275.66826799756 pbc="F F F"
C       52.21250989      50.01954396      50.08773718
C       50.69876038      51.41935787      48.23408660
C       52.88963921      50.77093791      49.13308520
C       52.16499787      51.51457566      48.25993828
C       46.59776028      51.30830844      50.23212028
C       50.88208372      49.79760851      50.10223624
C       50.00840891      50.69443962      49.21569504
O       48.97435825      48.50140073      50.99761487
O       48.69363830      51.73562264      51.21686029
O       51.09128169      48.48075464      51.98006799
C       50.15974528      48.84703334      51.03526417
C       48.08557635      51.32250094      50.28108247
O       48.65321456      50.62130270      49.17671541
H       50.66858958      47.64702107      52.28961985
H       52.75906163      49.33452722      50.70150217
H       50.10311762      52.06352940      47.56556185
H       53.89952885      50.87531712      49.11741940
H       52.65706870      52.12937214      47.52923494
H       46.14449857      50.46156383      50.87181182
H       46.21139482      52.19780529      50.85378915
H       46.00771968      51.29848721      49.26111150
