21
Lattice="100.0 0.0 0.0 0.0 100.0 0.0 0.0 0.0 100.0" Properties=species:S:1:pos:R:3 Energy=-406284.4063910565 Energy_pyscf=-406276.0796122182 pbc="F F F"
C       52.39971687      49.71397575      49.77190034
C       50.99443853      51.95034837      48.90281305
C       53.12564959      50.57412465      48.95371827
C       52.40846628      51.71157185      48.52772564
C       46.76376071      51.53233599      50.55204861
C       51.02101931      49.98320519      50.21428323
C       50.36401304      51.16166259      49.88683936
O       49.65658032      49.29570490      52.07447284
O       48.09838209      49.88922180      49.32198131
O       50.15380972      47.87869740      50.41274739
C       50.32207453      49.07116996      51.01763361
C       48.04256819      50.83111547      50.08781468
O       49.15904322      51.52919015      50.54542976
H       49.75511673      47.31880323      51.07022171
H       52.74443122      48.74052349      50.09718446
H       50.60393191      52.85569506      48.56000054
H       54.18855360      50.41172790      48.64179450
H       52.87158170      52.42790072      47.84701697
H       46.91850285      52.01527359      51.54370506
H       46.47389604      52.15664078      49.71126324
H       45.99708250      50.79268839      50.64600705
