21
Lattice="100.0 0.0 0.0 0.0 100.0 0.0 0.0 0.0 100.0" Properties=species:S:1:pos:R:3 Energy=-406276.8469585632 Energy_pyscf=-406258.83662411425 pbc="F F F"
C       52.11652016      49.12303131      48.99696610
C       51.25368093      51.86993432      48.97173830
C       52.75266336      50.12007610      48.30912269
C       52.45103253      51.47668921      48.27623578
C       46.98820008      51.12304835      50.29849921
C       51.05645921      49.45131678      49.73325923
C       50.61295356      50.84093702      49.65613884
O       50.98655339      47.17169061      50.37436284
O       48.05288293      49.99196492      48.59624735
O       49.67675408      48.64067686      51.72767206
C       50.55073288      48.27535881      50.66791282
C       48.22613313      50.54656573      49.75364217
O       49.38081898      50.96713832      50.29637207
H       49.34593679      47.78964065      52.06125922
H       52.46290374      48.10907301      49.14455759
H       50.84625019      52.81542695      48.71926017
H       53.72564911      49.95045225      47.83036006
H       53.04812503      52.18174533      47.69349214
H       46.33658667      50.18525942      50.36557192
H       47.15693372      51.65420427      51.27636299
H       46.43217225      51.87362140      49.61601132
