21
Lattice="100.0 0.0 0.0 0.0 100.0 0.0 0.0 0.0 100.0" Properties=species:S:1:pos:R:3 Energy=-406272.03627800284 Energy_pyscf=-406265.0614237417 pbc="F F F"
C       52.57873260      49.34098172      50.01966126
C       51.12603012      51.49427497      49.18527051
C       53.17703058      50.20968622      49.11591073
C       52.40277875      51.36455556      48.79150927
C       46.85039300      50.84906457      50.96437004
C       51.14376446      49.42164897      50.28998866
C       50.41845326      50.54050316      49.98524395
O       51.31967756      47.54610786      51.62932089
O       47.67271653      51.13026056      48.63995302
O       49.30152936      48.17550113      50.92771878
C       50.67076038      48.40835055      51.11354505
C       47.92893682      50.90151577      49.86556610
O       49.15325562      50.66827673      50.40569033
H       49.15516691      47.32840014      51.45257745
H       53.23824043      48.49074969      50.36818588
H       50.43288017      52.36374294      49.07758059
H       54.22884118      50.06860458      48.78477027
H       52.90375541      52.11495520      48.23358972
H       46.06610431      50.81744664      50.25068059
H       46.95274996      49.88204623      51.53989233
H       46.86663426      51.79603989      51.58397345
