21
Lattice="100.0 0.0 0.0 0.0 100.0 0.0 0.0 0.0 100.0" Properties=species:S:1:pos:R:3 Energy=-406269.83912989084 Energy_pyscf=-406269.32375731564 pbc="F F F"
C       52.23654375      49.58240282      50.00992186
C       51.07849874      52.07031775      49.43847558
C       52.87901225      50.48336179      49.15041834
C       52.34513463      51.70443557      48.79985589
C       46.82800009      51.15084587      50.99757467
C       50.90932454      49.83294267      50.34800726
C       50.35596853      51.16376837      50.20679265
O       49.25612954      48.67270385      51.92938591
O       47.85828622      50.14681145      49.21681932
O       50.94014905      47.50508698      50.99565066
C       50.24408613      48.64740120      51.15784231
C       48.07080198      50.79678695      50.21574029
O       49.19466588      51.38757086      50.84814897
H       50.41910833      47.04584195      51.66684236
H       52.65270174      48.60598818      50.45049171
H       50.69066325      53.09173822      49.14837357
H       53.84074854      50.12688003      48.73873864
H       52.81527258      52.35553080      48.08091151
H       46.53795267      50.22751417      51.63105968
H       47.21613895      51.95222254      51.71766383
H       45.90016828      51.35360512      50.36283527
