21
Lattice="100.0 0.0 0.0 0.0 100.0 0.0 0.0 0.0 100.0" Properties=species:S:1:pos:R:3 Energy=-406283.35469163116 Energy_pyscf=-406274.6750466358 pbc="F F F"
C       52.53304291      49.93568480      49.89332909
C       50.71158212      51.54780111      48.47754310
C       53.07709771      50.91642470      48.98389773
C       52.12754328      51.66625932      48.27335808
C       46.85203249      51.62203445      49.88583233
C       51.11519364      49.82064945      50.01527148
C       50.20623333      50.53605996      49.25408932
O       49.32313379      48.84823439      51.21577467
O       48.90706851      51.85769168      50.95041095
O       51.42583126      48.06641449      51.57387077
C       50.50191497      48.86906929      50.95303449
C       48.22546251      51.28400477      50.08372843
O       48.82689064      50.37509001      49.20313944
H       50.81378239      47.52003556      52.24807357
H       53.23625439      49.27448971      50.48808968
H       50.11245355      52.07092121      47.77656752
H       54.16914980      50.93824692      48.93458832
H       52.61635057      52.41113446      47.59227280
H       46.38967448      50.85726998      50.55593003
H       46.56326888      52.59958264      50.05722552
H       46.55257955      51.29237281      48.85579445
