21
Lattice="100.0 0.0 0.0 0.0 100.0 0.0 0.0 0.0 100.0" Properties=species:S:1:pos:R:3 Energy=-406276.7158412518 Energy_pyscf=-406271.52836514096 pbc="F F F"
C       52.33407900      49.63077413      49.65659683
C       51.22101479      52.10878442      48.98548176
C       53.10632202      50.69757546      49.03949551
C       52.54435930      51.80984025      48.45714254
C       46.77783094      51.41175871      50.61428223
C       51.08670908      49.99038496      50.23477007
C       50.46237064      51.29600820      49.84671529
O       49.58767448      49.28972739      51.96911898
O       48.03759513      49.74875992      49.47259351
O       50.12562707      47.69724627      50.61375114
C       50.21642727      49.01158944      50.98102373
C       48.01228476      50.80139876      50.00033310
O       49.08055148      51.64294482      50.06881028
H       49.36095642      47.32413486      51.14850578
H       52.87655175      48.72284496      49.95061928
H       50.69774575      52.97720261      48.51710881
H       54.16682398      50.44412097      48.84729633
H       53.03521859      52.43055498      47.76563930
H       47.05404669      52.03555955      51.49514552
H       46.26763674      52.03161816      49.84872489
H       45.97218712      50.72299988      50.91864981
