21
Lattice="100.0 0.0 0.0 0.0 100.0 0.0 0.0 0.0 100.0" Properties=species:S:1:pos:R:3 Energy=-406270.36461213575 Energy_pyscf=-406250.135082497 pbc="F F F"
C       51.94254385      49.47200132      49.54447198
C       51.13063887      52.18151807      49.33190868
C       52.84163743      50.36741976      48.99635153
C       52.45975632      51.74693308      48.83366461
C       47.11391257      50.54196619      51.01483349
C       50.75292588      49.80188749      50.01465162
C       50.24751859      51.27074399      49.82177702
O       49.37883854      49.31346281      51.95598393
O       47.87975072      50.14215846      48.78607913
O       50.33188787      47.48995517      50.71200787
C       50.01983793      48.90797007      50.92552557
C       48.03039429      50.70697122      49.86376419
O       49.06990950      51.63276943      50.20149804
H       50.67720791      47.08202114      51.57188923
H       52.34304205      48.53471488      49.94647140
H       50.92679982      53.25011381      48.97393554
H       53.76793721      50.07906030      48.61081502
H       53.04484165      52.38970001      48.28916634
H       47.55725530      49.79862872      51.69027699
H       47.19253700      51.44878923      51.60713538
H       46.08783502      50.22836081      50.65155856
