21
Lattice="100.0 0.0 0.0 0.0 100.0 0.0 0.0 0.0 100.0" Properties=species:S:1:pos:R:3 Energy=-406261.7918775847 Energy_pyscf=-406261.6574451915 pbc="F F F"
C       52.53965051      49.92277881      49.62130044
C       50.91461890      52.07121068      48.95387937
C       53.02720896      50.83402606      48.73353483
C       52.18149148      52.02881053      48.50539506
C       46.76507361      50.98813465      50.10446432
C       51.27536540      50.06701454      50.25968445
C       50.42159750      51.03453754      49.69398603
O       49.55555747      49.23302298      51.84358970
O       48.47862255      52.75892178      49.93891214
O       50.98921659      47.81036259      50.88611312
C       50.43390902      49.03890445      51.11233135
C       48.08487613      51.66669325      49.91095161
O       49.08209251      50.60757378      49.65304087
H       50.34864326      47.08149486      51.13193748
H       53.23139266      49.13448899      49.99143900
H       50.30475453      52.96703240      48.67816311
H       54.00207588      50.66163080      48.25265597
H       52.63886491      52.96770251      48.07662155
H       45.98548334      51.68299291      49.98173643
H       46.54152060      50.11489470      49.53010622
H       46.81102110      50.80994987      51.15831915
