21
Lattice="100.0 0.0 0.0 0.0 100.0 0.0 0.0 0.0 100.0" Properties=species:S:1:pos:R:3 Energy=-406282.5423615884 Energy_pyscf=-406279.26577442006 pbc="F F F"
C       52.12372419      50.34195748      50.44685790
C       50.66371880      51.70604174      48.56926595
C       52.82929816      50.95988112      49.41794258
C       52.07308055      51.62785223      48.50839628
C       46.57144808      51.13235113      50.66913076
C       50.69999000      50.21214853      50.46082622
C       50.07092615      50.96774086      49.55122563
O       48.86762373      49.17577967      51.74525918
O       48.78458105      51.93339335      51.59427025
O       50.81428711      48.14692551      51.80562778
C       50.01151638      49.16244539      51.40227538
C       48.07645967      51.44125567      50.69699671
O       48.64276225      50.88161053      49.52358325
H       50.37084763      47.52087438      52.36528639
H       52.66012305      49.88239572      51.30705138
H       49.96520435      52.30823998      47.90491953
H       53.84945771      51.00787588      49.24692796
H       52.59634664      52.14265276      47.64577118
H       46.53755478      50.04195191      50.92293867
H       46.04111134      51.66482357      51.44862450
H       46.13914719      51.43300940      49.71386404
