21
Lattice="100.0 0.0 0.0 0.0 100.0 0.0 0.0 0.0 100.0" Properties=species:S:1:pos:R:3 Energy=-406276.631755862 Energy_pyscf=-406275.1772734069 pbc="F F F"
C       52.19146940      50.03137746      50.36177151
C       50.71732616      51.49247086      48.36986950
C       52.81509940      50.83026996      49.47490373
C       52.12404439      51.43953731      48.40649732
C       46.70849901      50.89149735      50.74014710
C       50.80910467      49.86246203      50.27967010
C       50.12210880      50.61608621      49.32064045
O       48.91461471      48.92524274      51.61198747
O       48.58120831      52.22799573      50.91113532
O       51.01149227      48.04567172      51.88242612
C       50.11340173      48.90621429      51.32759859
C       48.02530288      51.36758679      50.25191546
O       48.73911662      50.57158177      49.19846973
H       50.65903787      47.58246511      52.65460479
H       52.66704184      49.37401502      51.13242799
H       50.19795790      51.99961619      47.54002048
H       53.96039817      50.95574248      49.58064065
H       52.63870009      51.94100873      47.57994401
H       47.00072233      50.04428894      51.39701651
H       46.11186209      51.82396794      51.24785177
H       46.02937083      50.59450052      49.96055116
