21
Lattice="100.0 0.0 0.0 0.0 100.0 0.0 0.0 0.0 100.0" Properties=species:S:1:pos:R:3 Energy=-406272.534298016 Energy_pyscf=-406274.8497281396 pbc="F F F"
C       52.33528092      49.70635957      49.72168976
C       51.01373384      52.00225318      48.95491364
C       53.01590753      50.67640033      49.05152865
C       52.33112959      51.72714642      48.53080781
C       46.84647153      51.56067673      50.47037930
C       51.04415672      49.98847612      50.28976244
C       50.37317859      51.18697212      49.86408073
O       49.50625783      49.27496982      52.05012769
O       48.12190862      49.82018536      49.10688694
O       50.48267090      47.73305901      50.66970016
C       50.23279863      48.96070993      51.07625764
C       48.07195155      50.85599803      49.83151466
O       49.10791371      51.60580218      50.29272164
H       49.78934750      47.19902940      51.20386293
H       52.73742448      48.66967979      49.89464130
H       50.41644058      52.74090928      48.39718147
H       54.15716898      50.49937159      48.92332582
H       52.78914991      52.46312249      47.83503565
H       47.14415535      51.71702359      51.57983464
H       46.54647347      52.48761177      49.98581191
H       45.96739422      51.00531452      50.70292066
