21
Lattice="100.0 0.0 0.0 0.0 100.0 0.0 0.0 0.0 100.0" Properties=species:S:1:pos:R:3 Energy=-406261.06271491176 Energy_pyscf=-406255.64729049953 pbc="F F F"
C       52.23085908      49.41268937      49.59061565
C       51.19642211      51.89792577      49.31550259
C       52.99791813      50.44626050      49.00827270
C       52.43302947      51.62402615      48.73724383
C       47.09400791      51.42154511      50.94858997
C       51.08335463      49.61533096      50.25447381
C       50.55815691      50.89427187      49.95257355
O       49.12063873      48.47581485      51.20412675
O       47.91054401      50.51468746      48.83541403
O       51.24000361      47.75263537      51.88593583
C       50.33618085      48.65811841      51.13978197
C       48.16462283      51.00355004      49.85685520
O       49.35923657      51.24842206      50.52009041
H       50.76008825      46.97277810      52.21063856
H       52.72966980      48.43016099      49.71084051
H       50.74009495      52.84058009      49.41004304
H       53.78770751      50.17078295      48.46410493
H       52.96825641      52.33642561      48.12654617
H       46.16350116      51.53547863      50.29399019
H       46.62240312      50.61767887      51.61821205
H       47.52502438      52.23909093      51.60655678
