21
Lattice="100.0 0.0 0.0 0.0 100.0 0.0 0.0 0.0 100.0" Properties=species:S:1:pos:R:3 Energy=-406275.620498461 Energy_pyscf=-406270.65626195195 pbc="F F F"
C       52.54471797      49.66327122      49.68672010
C       51.05299137      51.49061673      48.34264453
C       53.16687324      50.59029343      48.92012981
C       52.47012161      51.51445625      48.07785544
C       46.85684812      51.38256333      49.34843999
C       51.26924224      49.58774965      49.87046607
C       50.43369470      50.57053368      49.14815595
O       51.31529514      47.41252847      50.88875716
O       48.75888857      52.02503357      50.79397462
O       49.90402524      48.98028586      51.75515153
C       50.82120716      48.54011298      50.82267197
C       48.26461564      51.33767168      49.90010481
O       48.99455346      50.56038895      49.11635725
H       49.57513257      48.28312366      52.40376130
H       53.25606975      49.08223210      50.22493497
H       50.43801352      52.14660730      47.66782387
H       54.24833946      50.49137869      48.74898187
H       52.91182664      52.25246605      47.46878186
H       46.14984694      51.47500887      50.21292300
H       46.62160399      52.39057168      48.83111132
H       46.63260501      50.56103913      48.61956302
