21
Lattice="100.0 0.0 0.0 0.0 100.0 0.0 0.0 0.0 100.0" Properties=species:S:1:pos:R:3 Energy=-406275.91823415 Energy_pyscf=-406275.3019569066 pbc="F F F"
C       52.31314104      49.64528581      49.77438429
C       51.09530640      52.08233647      49.11224115
C       53.03146479      50.62565767      49.08656763
C       52.36888992      51.72093694      48.66490640
C       46.82754372      51.62642799      50.42639385
C       51.10971870      50.00105403      50.40761658
C       50.45895111      51.18898087      49.92900489
O       49.52316475      49.19461635      52.03798379
O       48.10976016      49.80240517      49.22984715
O       50.41991248      47.76600954      50.53426195
C       50.29005018      48.95563753      51.08114648
C       48.04216757      50.84091279      49.83303434
O       49.19682677      51.55247886      50.25555580
H       49.84620209      47.17365878      51.03156027
H       52.81733060      48.65106407      49.98872900
H       50.37917344      52.78577993      48.61141556
H       53.96891366      50.50170992      48.53932844
H       52.79430631      52.35950844      47.87864297
H       47.18847629      52.20145340      51.19650251
H       46.17514593      52.28801255      49.87315986
H       46.10630714      50.88077976      50.91450539
