21
Lattice="100.0 0.0 0.0 0.0 100.0 0.0 0.0 0.0 100.0" Properties=species:S:1:pos:R:3 Energy=-406280.3893106367 Energy_pyscf=-406272.9127715224 pbc="F F F"
C       52.24394615      49.48997983      49.74330782
C       50.97633750      51.92659051      49.50794718
C       52.85272498      50.41909444      48.88135821
C       52.10884039      51.63553041      48.75597279
C       46.76485812      51.64799372      50.60579914
C       51.06371646      49.76039711      50.39226262
C       50.31538845      50.98540821      50.23894446
O       49.25563802      48.35560620      51.06761570
O       48.05740727      50.80229840      48.81440493
O       51.33948738      47.86974161      51.79136492
C       50.44699840      48.63886122      51.21398603
C       48.00922806      51.31137977      49.94589874
O       49.11699480      51.27525339      50.83218487
H       51.00717826      46.92308894      51.85824124
H       52.69416101      48.57198662      49.81218610
H       50.53418116      52.92553586      49.41727605
H       53.88583010      50.34124833      48.54739918
H       52.62161730      52.40775176      48.13353928
H       46.19605157      52.21677999      49.83431154
H       46.17112077      50.84217688      51.07082768
H       46.79064082      52.50258156      51.34460982
