21
Lattice="100.0 0.0 0.0 0.0 100.0 0.0 0.0 0.0 100.0" Properties=species:S:1:pos:R:3 Energy=-406275.0140243966 Energy_pyscf=-406269.47625693656 pbc="F F F"
C       52.29645177      50.16063769      50.59048567
C       50.77490500      51.39904677      48.44100109
C       52.94995781      50.89043442      49.56963015
C       52.21053206      51.43947075      48.42239881
C       46.81326533      50.93202458      50.74273495
C       50.93797746      49.91264337      50.50629843
C       50.21925489      50.66273963      49.49651869
O       49.07032765      48.49688783      51.24811536
O       48.59223008      52.32746760      51.18080035
O       51.00981045      48.17538262      52.35313876
C       50.29648846      48.77397463      51.31811090
C       48.13668515      51.42009839      50.53069126
O       48.84753298      50.72091501      49.54460445
H       50.41643564      47.40577705      52.52728295
H       52.82613700      49.88100554      51.47273478
H       50.05891680      52.05290227      47.96612002
H       54.03051940      51.10082630      49.52198232
H       52.57499892      51.80691809      47.45646995
H       46.83293699      50.42803396      51.80423941
H       46.00972726      51.72336674      50.83481282
H       46.67269332      50.09310786      50.05256747
