21
Lattice="100.0 0.0 0.0 0.0 100.0 0.0 0.0 0.0 100.0" Properties=species:S:1:pos:R:3 Energy=-406277.07564244507 Energy_pyscf=-406275.4664827031 pbc="F F F"
C       52.22180480      49.44463372      49.36002881
C       51.28272583      51.93425780      48.99551912
C       53.00365496      50.32179771      48.78265348
C       52.59550218      51.64679716      48.66560631
C       47.05236429      51.06468337      50.89337767
C       50.95963090      49.65421716      49.86108545
C       50.45934737      51.01882025      49.67573182
O       49.21178730      48.79072429      51.34398122
O       47.76853682      50.55772883      48.70840197
O       51.26976819      47.66978239      51.08141878
C       50.27976637      48.70269146      50.74702528
C       48.03202439      50.96457722      49.78416415
O       49.30584085      51.41041652      50.18931240
H       50.70850150      47.03577062      51.58096326
H       52.49535691      48.42822150      49.50198963
H       50.90701979      53.03729541      48.77168866
H       54.07488607      49.99971169      48.52674335
H       53.25294384      52.34480874      48.24717089
H       46.05683315      50.81629871      50.54747078
H       47.50293604      50.29078942      51.65845396
H       47.03311769      51.99086357      51.57944520
