21
Lattice="100.0 0.0 0.0 0.0 100.0 0.0 0.0 0.0 100.0" Properties=species:S:1:pos:R:3 Energy=-406271.5776681079 Energy_pyscf=-406266.28046006843 pbc="F F F"
C       52.50473424      49.94419931      49.69450791
C       50.91181496      52.00914222      48.88627151
C       53.10777542      50.86952539      48.83832059
C       52.22887276      51.95515384      48.45445281
C       46.74246523      51.13861283      50.09280023
C       51.15247353      49.95661116      50.08885837
C       50.30666597      50.96114890      49.46252447
O       49.77541854      49.05313635      51.78384880
O       48.27406621      53.02906490      49.67556746
O       50.97369533      47.53220031      50.72957904
C       50.59066802      48.91546011      50.91334934
C       48.08327379      51.87754148      49.93087432
O       49.02938110      50.88253021      49.96433528
H       50.57448834      46.99594705      51.48087711
H       53.19695780      49.11501105      49.95442025
H       50.28368811      52.86181783      48.58139777
H       54.14289634      50.82111877      48.46319698
H       52.53494372      52.91169535      48.18580225
H       45.84390610      51.81654172      49.99011052
H       46.60258608      50.11928287      49.62591675
H       46.79340288      50.72068844      51.16267713
