21
Lattice="100.0 0.0 0.0 0.0 100.0 0.0 0.0 0.0 100.0" Properties=species:S:1:pos:R:3 Energy=-406280.4593383453 Energy_pyscf=-406277.34607590537 pbc="F F F"
C       52.53835505      49.86617600      49.74460718
C       50.97064243      52.03757394      48.94621192
C       53.13080517      50.85432884      48.90530012
C       52.33693264      51.97388618      48.59762629
C       46.73404452      51.10519242      50.29054552
C       51.16462791      50.01946108      50.18081512
C       50.33422443      50.98356850      49.56605994
O       49.37211110      49.05852809      51.32987650
O       48.30007709      52.93799546      49.97581141
O       51.27882615      47.84301537      50.92473601
C       50.48323944      48.93336283      50.89943737
C       48.05198858      51.75647622      49.85159374
O       49.00402758      50.73695668      49.40114273
H       50.78081160      47.09475307      51.23535872
H       53.05446909      48.97662346      50.01831406
H       50.29659046      52.82723278      48.58834576
H       54.15734362      50.87725039      48.40358844
H       52.71081498      52.82220347      47.96439881
H       45.91575198      51.75447295      49.87859869
H       46.39989101      50.08708096      49.97421768
H       46.59777066      50.99095279      51.34982688
