21
Lattice="100.0 0.0 0.0 0.0 100.0 0.0 0.0 0.0 100.0" Properties=species:S:1:pos:R:3 Energy=-406277.440782036 Energy_pyscf=-406276.2171231842 pbc="F F F"
C       52.25222845      49.54492975      49.97888279
C       50.97989530      51.94308445      49.45851960
C       52.78519950      50.45426640      49.12843047
C       52.22473557      51.65111892      48.81143013
C       46.86485809      51.09022536      51.03655004
C       51.02750248      49.77471044      50.55258994
C       50.42251188      50.98116539      50.25068087
O       49.21160300      48.77645562      51.77866554
O       47.96574771      51.08682218      48.86330151
O       50.90464746      47.43822135      51.14438669
C       50.32357781      48.62212197      51.27235299
C       48.08085353      51.07628991      50.05799209
O       49.26397815      51.31067914      50.88194270
H       50.43410668      46.88947385      51.80047049
H       52.77408222      48.58704329      50.26384976
H       50.23994975      52.67529351      49.10859389
H       53.86090386      50.19436925      48.85261361
H       52.71687320      52.34425785      48.15350045
H       47.01847184      50.27387580      51.68482933
H       46.84499007      52.07052634      51.65857231
H       46.02089645      51.10851363      50.41809352
