21
Lattice="100.0 0.0 0.0 0.0 100.0 0.0 0.0 0.0 100.0" Properties=species:S:1:pos:R:3 Energy=-406273.25059975183 Energy_pyscf=-406269.16326137487 pbc="F F F"
C       52.25194411      49.93011270      50.00816733
C       50.66708160      51.42383774      48.32167182
C       52.86904692      50.73278159      49.12550831
C       52.06870991      51.53016219      48.27806628
C       46.51691606      51.36998857      50.26289002
C       50.76346366      49.67268377      49.96378693
C       50.03208920      50.58384320      49.23148317
O       49.01162990      48.55281393      51.03189232
O       48.76386555      52.09293799      51.06426226
O       51.15528921      48.20942970      51.82312645
C       50.16831211      48.78375898      50.98760675
C       48.06479022      51.53417707      50.25780937
O       48.56780797      50.68154422      49.10889502
H       50.66070665      47.71754296      52.51912319
H       52.84937463      49.60458608      50.86407124
H       50.06808720      52.01882382      47.72110428
H       53.91851063      50.71448127      49.09353007
H       52.57631131      52.18221307      47.57563261
H       46.30099989      50.40990087      50.71634423
H       46.03161365      51.99576340      51.07280647
H       46.25410095      51.32246316      49.16241553
