21
Lattice="100.0 0.0 0.0 0.0 100.0 0.0 0.0 0.0 100.0" Properties=species:S:1:pos:R:3 Energy=-406274.82237056346 Energy_pyscf=-406252.3623788102 pbc="F F F"
C       52.46260776      49.41307734      49.83823188
C       51.23718246      51.85095862      49.03145737
C       53.09124916      50.25559798      49.01976524
C       52.53875281      51.52707511      48.56899123
C       46.81405042      51.29277171      50.79624429
C       51.01216267      49.75445402      50.16769963
C       50.46640570      50.99581385      49.96481160
O       49.53867616      48.89291305      51.89038707
O       47.72806363      50.16253995      49.06074767
O       51.07680155      47.44215915      50.98913253
C       50.54570944      48.70302350      51.01701603
C       47.95854239      50.92503894      49.97410347
O       49.25879103      51.53683707      50.29126723
H       50.87213440      47.13937076      51.95549839
H       52.78769869      48.44105262      50.17614261
H       50.84534782      52.84301788      48.79423924
H       54.12438698      50.06806940      48.81383497
H       53.25697740      52.19739941      48.06166025
H       45.81596031      51.35214596      50.17194398
H       46.54636024      50.46542426      51.56689378
H       46.93663399      52.26514835      51.39413410
