21
Lattice="100.0 0.0 0.0 0.0 100.0 0.0 0.0 0.0 100.0" Properties=species:S:1:pos:R:3 Energy=-406274.788543153 Energy_pyscf=-406261.6065644634 pbc="F F F"
C       52.38901774      49.37311067      49.12222814
C       51.35136135      51.98476836      49.06412336
C       53.04453140      50.46870828      48.38253492
C       52.63556664      51.75818791      48.57429566
C       46.89678635      51.31698783      50.04521637
C       51.27039866      49.74683360      49.94070226
C       50.51743802      51.01785914      49.83336663
O       49.91473203      49.03746474      51.76280482
O       48.38991943      50.01757794      48.68504165
O       51.12454431      47.46394993      50.62712783
C       50.73267987      48.79298200      50.84332443
C       48.23354199      50.84383087      49.50833564
O       49.26474417      51.32305259      50.32635873
H       50.70551608      46.95525714      51.32553097
H       52.72982253      48.28431889      49.08483560
H       51.02235778      53.06089192      49.11402285
H       54.04706050      50.02174931      48.12585454
H       53.12346031      52.57895761      48.01021452
H       46.75657036      52.26591003      50.63910653
H       46.34374908      51.58944297      49.10699445
H       46.47057921      50.50079591      50.65344937
