21
Lattice="100.0 0.0 0.0 0.0 100.0 0.0 0.0 0.0 100.0" Properties=species:S:1:pos:R:3 Energy=-406283.5547601104 Energy_pyscf=-406267.4150738857 pbc="F F F"
C       52.56262382      49.89398717      49.91889991
C       50.90530338      51.37967602      48.33269412
C       53.13124800      51.03845759      49.17961169
C       52.22543154      51.59946996      48.25097110
C       46.75516203      51.50117780      49.88787225
C       51.13117949      49.83189311      50.09879084
C       50.30365424      50.58509433      49.33077507
O       49.56919014      49.08613831      51.71294773
O       48.74003078      52.08706253      51.03382318
O       51.37914572      47.74142748      51.41918910
C       50.65339833      48.85744992      51.13701508
C       48.17791353      51.57810428      50.18204540
O       48.90380158      50.60903587      49.33467249
H       50.81948823      47.29116432      52.12870688
H       53.18925023      49.07650501      50.22925012
H       50.20617732      51.91306308      47.67984583
H       54.22967138      51.17521060      49.10403523
H       52.84253524      52.29548956      47.62687673
H       46.26261247      50.82192017      50.54190690
H       46.24811987      52.45491967      50.13148625
H       46.59619496      51.30403369      48.84854050
