21
Lattice="100.0 0.0 0.0 0.0 100.0 0.0 0.0 0.0 100.0" Properties=species:S:1:pos:R:3 Energy=-406273.2159614259 Energy_pyscf=-406266.4442666676 pbc="F F F"
C       52.19784685      49.74460757      50.16535987
C       50.72230361      51.57350683      48.65302622
C       52.87119924      50.43172221      49.14340762
C       52.17643818      51.38175384      48.43348136
C       46.60583713      50.89492739      50.50272273
C       50.76493033      49.73103918      50.24322872
C       50.10566108      50.78029326      49.57233905
O       48.98863245      48.53924163      51.22728597
O       48.49010981      52.14325782      51.24439101
O       51.20370826      48.31930039      51.94577192
C       50.21982547      48.76617952      51.13275787
C       47.96603637      51.40802737      50.49615243
O       48.77126654      50.69394129      49.57286393
H       50.98159773      47.84129153      52.69472556
H       52.81815277      49.04205707      50.63654842
H       50.26925347      52.45029972      48.16714840
H       54.04366763      50.26249237      49.04948872
H       52.66458705      51.91032716      47.66498813
H       46.63156246      49.89297029      50.95077400
H       45.83237449      51.36214154      51.12989095
H       46.34863765      50.71706199      49.42950653
