21
Lattice="100.0 0.0 0.0 0.0 100.0 0.0 0.0 0.0 100.0" Properties=species:S:1:pos:R:3 Energy=-406281.8245795672 Energy_pyscf=-406275.23877283686 pbc="F F F"
C       52.20321581      49.53434829      49.76546365
C       50.96830589      51.94195928      49.49780628
C       52.82257090      50.54938236      48.87761953
C       52.04762214      51.72096160      48.75649200
C       46.72624487      51.77278236      50.55426554
C       50.97289793      49.68758845      50.31908943
C       50.28906026      50.94523912      50.20259549
O       49.22131268      48.24854465      51.26766954
O       48.06237132      50.79250524      48.78288095
O       51.39678917      47.78800198      51.60967776
C       50.40133027      48.61721892      51.14956776
C       47.97895545      51.19117713      49.89898400
O       49.06942443      51.20774868      50.72503451
H       50.94167971      46.99581829      51.99550935
H       52.62782231      48.55233964      49.95365237
H       50.59143543      52.96963653      49.58539719
H       53.89159456      50.41865886      48.53184785
H       52.67886580      52.41012247      48.09350910
H       46.05088666      52.17368111      49.78432018
H       46.39557427      50.88796095      51.11636494
H       47.03662774      52.46030153      51.30956116
