21
Lattice="100.0 0.0 0.0 0.0 100.0 0.0 0.0 0.0 100.0" Properties=species:S:1:pos:R:3 Energy=-406276.85994142294 Energy_pyscf=-406267.86714044167 pbc="F F F"
C       52.26238892      49.36804193      49.49485043
C       51.14895472      51.95697949      49.39809926
C       52.93294683      50.40017434      48.94695842
C       52.37537817      51.60977619      48.74652634
C       47.01311584      51.31377636      50.90067828
C       51.00485808      49.62738300      50.20913313
C       50.46060077      50.89295719      49.95207662
O       49.26300067      48.58333380      51.33105637
O       48.01770723      50.53928949      48.93134377
O       51.29508411      47.80613213      51.77249252
C       50.48246636      48.65639835      51.13252051
C       48.08941171      50.93457502      50.02456665
O       49.31891817      51.19768407      50.63986708
H       50.73903265      47.07271493      52.20121135
H       52.71897565      48.40311367      49.60019934
H       50.92896776      53.05011861      49.41204402
H       53.97704057      50.01973713      48.65330965
H       52.85503506      52.24040155      48.01329248
H       46.23007801      51.77970175      50.22107200
H       46.48481072      50.53051558      51.48999629
H       47.43008832      52.14044132      51.61702533
