21
Lattice="100.0 0.0 0.0 0.0 100.0 0.0 0.0 0.0 100.0" Properties=species:S:1:pos:R:3 Energy=-406276.8945622652 Energy_pyscf=-406272.47693509015 pbc="F F F"
C       52.33404336      48.97570194      48.92482615
C       51.26231885      51.54850512      49.05591050
C       52.97809091      49.96139237      48.08349969
C       52.38629700      51.25751148      48.28060432
C       46.96786557      50.64266301      50.46181595
C       51.17511050      49.20783165      49.61708341
C       50.55782629      50.49918657      49.65286667
O       49.73202503      47.36938167      50.18151471
O       48.18115812      51.45406490      48.44970273
O       50.93046874      48.19586162      51.80009937
C       50.58141388      48.15289198      50.52019260
C       48.11726139      50.84771742      49.50349942
O       49.29777579      50.35835133      50.17133000
H       50.26318312      47.58956078      52.12543006
H       52.68278518      47.90818758      48.87697117
H       50.99761503      52.57241419      49.09466718
H       53.92340564      49.73017025      47.51980378
H       52.69124345      52.21601836      47.77435125
H       46.05980544      50.25313286      49.85069190
H       47.22588704      49.85295558      51.17980460
H       46.67653987      51.55278866      51.09951869
