21
Lattice="100.0 0.0 0.0 0.0 100.0 0.0 0.0 0.0 100.0" Properties=species:S:1:pos:R:3 Energy=-406267.43746753375 Energy_pyscf=-406261.0798695405 pbc="F F F"
C       52.27567456      49.04960224      48.97106676
C       51.25914279      51.57794123      49.00590960
C       52.92290675      50.06268595      48.17372974
C       52.30440501      51.28061962      48.20745288
C       47.00440460      50.55138741      50.36978289
C       51.17393109      49.23023236      49.71870933
C       50.60655687      50.52777865      49.70249824
O       49.65274764      47.36644275      50.03764997
O       48.23502120      51.14919811      48.31571321
O       50.81142053      48.20658433      51.78921702
C       50.48750150      48.10678210      50.51588220
C       48.20951998      50.69969458      49.47512781
O       49.41372111      50.71747086      50.38805075
H       50.41994441      47.51796574      52.34970006
H       52.56488069      47.91271111      48.83971016
H       50.92161479      52.55160246      49.13199688
H       53.72812870      49.81622505      47.58041878
H       52.69470626      52.13415928      47.66378275
H       46.25342087      50.64087424      49.69519947
H       47.03536104      49.63932108      50.96281199
H       47.02381398      51.38000773      51.27073993
