21
Lattice="100.0 0.0 0.0 0.0 100.0 0.0 0.0 0.0 100.0" Properties=species:S:1:pos:R:3 Energy=-406271.27442077093 Energy_pyscf=-406265.5249576067 pbc="F F F"
C       52.63030470      50.15901683      50.22862784
C       51.03258321      51.67383657      48.70884323
C       53.21612823      50.93034608      49.13096810
C       52.31899019      51.71625891      48.35136943
C       46.78974665      51.32565235      49.53559260
C       51.28529138      50.08976078      50.48044427
C       50.43352817      50.83357929      49.69163040
O       50.62154486      49.09969825      52.53375441
O       48.51612797      52.77031510      50.55891407
O       50.35593165      47.90479319      50.61576413
C       50.76918098      48.96144605      51.36714117
C       48.12417986      51.72959874      50.10616831
O       49.07598998      50.66536965      49.67678457
H       50.20396876      47.02767030      51.19556620
H       53.47152545      49.67388941      50.76941657
H       50.35703325      52.36411344      48.19121859
H       54.28744552      50.87516019      48.85866288
H       52.59539198      52.40977330      47.46547612
H       46.12489872      51.44877468      50.46285903
H       46.29879175      52.13820851      48.91235304
H       46.72622607      50.25045547      49.27049184
