21
Lattice="100.0 0.0 0.0 0.0 100.0 0.0 0.0 0.0 100.0" Properties=species:S:1:pos:R:3 Energy=-406255.22952793195 Energy_pyscf=-406238.93603115866 pbc="F F F"
C       52.33466036      49.07536100      49.02046368
C       51.09397592      51.46036276      48.97146013
C       52.96503694      50.09579621      48.25899965
C       52.35882590      51.28880071      48.26445617
C       47.04740299      50.61843335      50.30067100
C       51.11750808      49.15098152      49.61118418
C       50.50155694      50.44233361      49.63440306
O       49.37863357      47.57678869      50.40083461
O       48.23541024      51.40130128      48.47025327
O       51.15451103      47.76325761      51.72936930
C       50.56548600      48.09380984      50.50401173
C       48.21415872      50.93910490      49.52110806
O       49.41107941      50.79630010      50.27528613
H       50.41923591      47.39892058      52.34277270
H       52.67466331      47.93811472      48.89709348
H       50.73903061      52.47640890      49.06729804
H       53.77818269      49.83406597      47.51620816
H       52.65945920      52.13787351      47.65377749
H       46.32377400      50.33431533      49.65759666
H       47.08822571      49.88407732      50.99708518
H       46.93701543      51.40225193      51.11144574
