21
Lattice="100.0 0.0 0.0 0.0 100.0 0.0 0.0 0.0 100.0" Properties=species:S:1:pos:R:3 Energy=-406283.1113022185 Energy_pyscf=-406280.01792531007 Energy_pyscf_og=-406282.70571292436 pbc="F F F"
C       52.27389957      49.38663721      49.66509282
C       51.05978559      51.92984642      49.44975650
C       52.97274445      50.39280749      48.99887552
C       52.25863566      51.63270246      48.72661134
C       47.08224827      51.59398168      50.75462568
C       50.96232546      49.61518647      50.28208514
C       50.42431216      50.91498611      50.12298553
O       49.21263665      48.40942371      51.34678298
O       48.15120999      50.38085272      48.90272790
O       51.34699134      47.67586969      51.58513590
C       50.37836163      48.47734143      51.10317836
C       48.12790981      51.00325739      49.98454303
O       49.27623563      51.14119252      50.76187395
H       50.91387985      46.96612792      52.07952224
H       52.68360724      48.33098765      49.78451205
H       50.51544187      52.89688925      49.52574586
H       53.87720934      50.05040454      48.49269799
H       52.84333939      52.36245556      48.14095828
H       46.07211480      51.54311393      50.34520214
H       47.02889197      50.89165058      51.61265705
H       47.27182450      52.58034988      51.09394452
