21
Lattice="100.0 0.0 0.0 0.0 100.0 0.0 0.0 0.0 100.0" Properties=species:S:1:pos:R:3 Energy=-406264.06883021124 Energy_pyscf=-406257.0861895968 Energy_pyscf_og=-406263.67214668036 pbc="F F F"
C       52.35354572      48.92437526      48.94661781
C       51.12686977      51.48213318      48.98889270
C       52.89813982      50.00869977      48.24502164
C       52.43256921      51.32320076      48.21075637
C       47.02954430      50.61162537      50.47615125
C       51.09427756      49.16492317      49.51567184
C       50.49609634      50.34828069      49.52997741
O       49.48727941      47.46663902      50.24645267
O       48.16816384      51.17849666      48.30681415
O       50.90074736      48.29995502      51.75782007
C       50.48762510      48.14991098      50.42040092
C       48.18488065      50.80182882      49.51022914
O       49.38910443      50.53562995      50.17335623
H       50.39156121      47.48274228      52.10669117
H       52.86204576      47.95882709      48.93686735
H       50.69661735      52.51949643      49.23403670
H       53.86253459      49.89037474      47.86218789
H       52.69158027      52.16157333      47.64590931
H       46.10320825      50.73066414      49.90332971
H       47.08989481      49.66719928      51.04607620
H       47.29055112      51.45068843      51.13812320
