21
Lattice="100.0 0.0 0.0 0.0 100.0 0.0 0.0 0.0 100.0" Properties=species:S:1:pos:R:3 Energy=-406257.94724736776 Energy_pyscf=-406238.11664101406 Energy_pyscf_og=-406257.5347026438 pbc="F F F"
C       52.44635283      49.83083968      49.83105860
C       50.86294206      51.43482948      48.35896376
C       53.09868095      50.87508575      49.28209167
C       52.16837435      51.57551723      48.35722056
C       46.66843242      51.55040056      49.95469339
C       51.09800434      49.67973092      50.01069269
C       50.17748401      50.49409854      49.23161562
O       49.51425468      49.13929825      51.58599054
O       48.81479864      52.12008179      50.99507702
O       51.67090151      47.95996226      51.58223474
C       50.70102218      48.82720889      51.12848310
C       48.27957955      51.47596869      50.11763476
O       48.82608434      50.53563642      49.38849159
H       51.11346074      47.23141558      52.04385031
H       53.10240257      49.14256266      50.35364010
H       50.42457758      52.31952759      47.77354480
H       54.22511332      51.03168476      49.08644791
H       52.72459070      52.28237093      47.67558211
H       45.98191609      50.93749927      50.50704563
H       46.44372619      52.60550510      49.95316380
H       46.50152097      51.10431024      48.92318424
