21
Lattice="100.0 0.0 0.0 0.0 100.0 0.0 0.0 0.0 100.0" Properties=species:S:1:pos:R:3 Energy=-406274.49852448324 Energy_pyscf=-406258.51504512905 Energy_pyscf_og=-406274.09337241104 pbc="F F F"
C       52.43516974      49.42375525      49.63717055
C       51.24964680      51.96310986      49.59044017
C       52.86563892      50.35683838      48.77852348
C       52.33533374      51.68221960      48.72711960
C       46.75244826      51.52417392      50.70972313
C       51.18871848      49.58855697      50.26898346
C       50.46570608      50.90192987      50.28145550
O       49.63850126      47.86883494      50.56238586
O       48.04434212      51.72021432      48.64261217
O       51.55228615      47.95779070      51.85126645
C       50.70482095      48.41490185      50.94274010
C       48.01218499      51.54062590      49.85152311
O       49.17590351      50.95883676      50.65607451
H       51.12482420      47.20642377      52.35533646
H       52.98038650      48.51514113      49.57664991
H       51.01224922      52.98409577      49.81352869
H       53.80488280      50.31091364      48.14457367
H       52.72377503      52.44564090      48.05734204
H       46.09833788      52.36766966      50.29344875
H       46.18065547      50.53085577      50.67537530
H       47.00784852      51.57925323      51.81235230
