21
Lattice="100.0 0.0 0.0 0.0 100.0 0.0 0.0 0.0 100.0" Properties=species:S:1:pos:R:3 Energy=-406276.59933438833 Energy_pyscf=-406275.6501006881 Energy_pyscf_og=-406276.19259510154 pbc="F F F"
C       52.19827289      50.27074787      50.39367675
C       50.64752148      51.72491843      48.64551522
C       52.90419960      50.86241153      49.38751561
C       52.06998981      51.66671879      48.56683201
C       46.48835226      51.18764420      50.65527879
C       50.79808302      50.20256646      50.60290336
C       50.07801305      50.91462102      49.65530536
O       49.00590623      49.07128884      51.74086583
O       48.56157921      52.21265864      51.54295096
O       50.98607837      48.21806597      51.97036433
C       50.22353860      49.18922244      51.50739920
C       47.97841478      51.44128341      50.79928481
O       48.63986501      50.84679908      49.72867799
H       50.22863224      47.68235673      52.26111807
H       52.82307225      49.65677869      50.96445551
H       50.15450722      52.28361453      47.86884403
H       53.93775479      51.02263953      49.24937828
H       52.41840170      52.13791268      47.62663738
H       46.30243128      50.03559637      50.61503423
H       45.92486016      51.55492744      51.48431454
H       46.04070840      51.51148085      49.72005102
