21
Lattice="100.0 0.0 0.0 0.0 100.0 0.0 0.0 0.0 100.0" Properties=species:S:1:pos:R:3 Energy=-406275.94004483375 Energy_pyscf=-406267.47704055253 Energy_pyscf_og=-406275.5521753579 pbc="F F F"
C       52.44588090      49.90621548      49.95509231
C       50.77894895      51.49997413      48.46033689
C       52.98956077      50.81992497      48.95288647
C       52.16872826      51.75794282      48.34551618
C       46.56653237      50.59079837      50.00298037
C       51.03017133      49.73926582      49.99539206
C       50.17605079      50.56475029      49.33103983
O       50.66441364      48.76691738      52.27967138
O       48.30811915      52.13392484      50.40249783
O       49.49333740      47.95000313      50.48537161
C       50.39962237      48.77854353      51.04103256
C       47.94413679      51.20036866      49.82400279
O       48.80833438      50.28107725      49.22854796
H       49.17181654      47.40830983      51.27835355
H       53.15140579      49.24553141      50.37403172
H       50.00874108      52.21302225      47.98614828
H       54.04306403      50.99123904      48.72377952
H       52.45815279      52.70128898      47.73002469
H       46.36587603      49.79671560      49.28008105
H       46.61027254      50.04565101      50.94574781
H       45.89815241      51.33995796      50.00624489
