21
Lattice="100.0 0.0 0.0 0.0 100.0 0.0 0.0 0.0 100.0" Properties=species:S:1:pos:R:3 Energy=-406281.98506366124 Energy_pyscf=-406281.1695200758 Energy_pyscf_og=-406281.57204202074 pbc="F F F"
C       52.29131656      50.14725381      50.37422077
C       50.67576298      51.64462937      48.60842100
C       52.88036605      50.95463294      49.39140765
C       52.09441773      51.63999117      48.49452747
C       46.50440475      51.04690751      50.66453337
C       50.89437687      50.16785917      50.51833924
C       50.07626967      50.92073284      49.61434842
O       48.94673468      49.39040218      51.76312631
O       48.43826647      52.30279286      51.53268799
O       50.93594025      48.22456067      51.91165391
C       50.14921097      49.21873357      51.46570118
C       47.94157426      51.54725290      50.67151636
O       48.66871143      51.04682865      49.68634767
H       50.44847907      47.52609808      52.32534260
H       52.92813102      49.67993892      51.13967341
H       49.92235059      52.29101453      48.08229188
H       54.00405958      50.93875942      49.25644752
H       52.56175757      52.00187440      47.60016909
H       46.19332952      50.02588267      50.35019602
H       45.91242495      51.34887273      51.57056611
H       45.89172881      51.63285610      49.92345792
