21
Lattice="100.0 0.0 0.0 0.0 100.0 0.0 0.0 0.0 100.0" Properties=species:S:1:pos:R:3 Energy=-406277.528810487 Energy_pyscf=-406271.3205173478 Energy_pyscf_og=-406277.1413001971 pbc="F F F"
C       52.31514333      49.30710689      49.66194530
C       51.09687617      51.83016398      49.28727490
C       53.06366429      50.34722398      49.00419519
C       52.39461489      51.54704563      48.79558280
C       47.06884050      51.41855757      50.98020790
C       51.01025059      49.62879975      50.22180519
C       50.44591894      50.84182370      49.85617549
O       49.15304316      48.87158475      51.56621219
O       47.90145904      50.44510775      48.84007441
O       51.21275534      47.73586656      51.56319639
C       50.31786748      48.71744993      51.15388789
C       48.02678420      51.02442629      49.86683787
O       49.23672551      51.29037120      50.48009934
H       50.81812039      46.94678787      52.00341571
H       52.93844877      48.35846411      49.83131651
H       50.61404791      52.83318717      49.29077718
H       54.00575653      50.17694831      48.60192423
H       52.93478726      52.24383872      48.21341601
H       46.20119998      51.68115293      50.37291820
H       46.74167905      50.55786653      51.58353097
H       47.22459128      52.28046423      51.66935349
