21
Lattice="100.0 0.0 0.0 0.0 100.0 0.0 0.0 0.0 100.0" Properties=species:S:1:pos:R:3 Energy=-406272.1097545172 Energy_pyscf=-406262.3360660308 Energy_pyscf_og=-406271.71855302213 pbc="F F F"
C       52.23524889      49.98175271      50.22953150
C       50.83063805      51.50941649      48.36644291
C       52.89112847      50.71519841      49.23842995
C       52.19677187      51.49574322      48.35758942
C       46.63831058      50.76661147      50.57714119
C       50.78752709      50.05473286      50.35769401
C       50.11516198      50.83829165      49.41234118
O       48.93591732      48.68780259      50.95279886
O       48.30478982      52.19682732      51.21956446
O       51.18380002      48.25369547      51.84099160
C       50.14062776      48.91947855      51.02472343
C       48.00820574      51.31771381      50.53002751
O       48.82139350      50.87320780      49.45772939
H       50.68123650      47.66247894      52.37804710
H       52.79634704      49.34516874      50.88942152
H       50.20067009      52.03346489      47.68142167
H       53.94154352      50.57831153      49.24099163
H       52.89247911      51.97463438      47.65164366
H       46.55567706      49.64067852      50.96874577
H       46.15461306      51.50175024      51.34678166
H       46.21552185      51.06051082      49.67548112
