21
Lattice="100.0 0.0 0.0 0.0 100.0 0.0 0.0 0.0 100.0" Properties=species:S:1:pos:R:3 Energy=-406275.79791399685 Energy_pyscf=-406275.42170042254 Energy_pyscf_og=-406275.40074648877 pbc="F F F"
C       52.30461118      49.59743231      50.07191205
C       50.86897029      51.83381601      49.22250425
C       52.94880297      50.45212684      49.19100516
C       52.20066671      51.60321528      48.79503795
C       46.77070712      51.32063022      51.06217583
C       50.96853507      49.78652455      50.55505101
C       50.35474261      50.97851810      50.24761798
O       49.27766375      48.59431018      51.88811196
O       47.98674211      51.23895332      48.93277354
O       51.14544582      47.35000373      51.07232755
C       50.35444279      48.55690852      51.26134281
C       47.88738183      51.25352985      50.12486161
O       49.04552284      51.08795195      50.85582744
H       50.85843990      46.66235140      51.70711833
H       52.78292831      48.70201590      50.51578785
H       50.35596652      52.73616261      48.85819975
H       53.92406666      50.13811273      48.87033820
H       52.78492413      52.29547753      48.11155188
H       46.71215816      50.29700680      51.30704216
H       46.86304475      51.90634029      51.95265294
H       45.85978525      51.53280530      50.55689426
