21
Lattice="100.0 0.0 0.0 0.0 100.0 0.0 0.0 0.0 100.0" Properties=species:S:1:pos:R:3 Energy=-406276.0742050817 Energy_pyscf=-406273.08600350964 Energy_pyscf_og=-406275.6643169596 pbc="F F F"
C       52.16573826      50.25340191      50.42581819
C       50.70511783      51.56189170      48.55376314
C       52.78670143      51.01708502      49.39863986
C       52.07642341      51.78264942      48.44985306
C       46.52061391      51.15239351      50.55602557
C       50.74699234      50.14067463      50.56790921
C       50.03707108      50.94037012      49.69114698
O       48.91508585      49.04531343      51.87542183
O       48.57948915      51.88243145      51.84426807
O       51.05188603      48.23980807      51.84236188
C       50.12115291      49.16846967      51.52342551
C       48.04823327      51.53531166      50.84431764
O       48.62124647      51.04991906      49.73650760
H       50.66443387      47.76870252      52.59272958
H       52.79069273      49.51467287      50.97859721
H       49.94796941      52.09045301      47.92610109
H       53.82300972      50.89920468      49.31590540
H       52.53883130      52.20931790      47.47037944
H       46.22167852      50.11980806      50.26136052
H       45.85607304      51.50427041      51.39981119
H       46.21934530      51.77165457      49.72122722
