21
Lattice="100.0 0.0 0.0 0.0 100.0 0.0 0.0 0.0 100.0" Properties=species:S:1:pos:R:3 Energy=-406279.70474340604 Energy_pyscf=-406276.03538438963 Energy_pyscf_og=-406279.3016948432 pbc="F F F"
C       52.23289042      49.45297269      49.48396165
C       50.61621035      51.55922619      48.81272462
C       52.66782177      50.43946524      48.61589469
C       51.88710876      51.59136320      48.33449863
C       46.72180943      51.54237155      50.49097879
C       50.87819741      49.33657175      49.85985643
C       50.01758015      50.45686878      49.56627077
O       49.12296944      48.10082099      50.84854855
O       47.91272109      51.86572381      48.43847867
O       51.29802601      47.63068842      51.41625604
C       50.33239492      48.24547542      50.68164165
C       47.80255149      51.37105688      49.48749075
O       48.77701944      50.48635632      50.11239690
H       50.88150068      46.95641234      52.00876487
H       52.86919174      48.62680543      49.68462170
H       50.16034840      52.49898558      48.67835054
H       53.77310991      50.50271081      48.26902800
H       52.07682896      52.42894891      47.71468296
H       46.99304135      51.70610808      51.46719674
H       46.04899089      52.31169262      50.07999178
H       46.26445412      50.54390448      50.56921132
