21
Lattice="100.0 0.0 0.0 0.0 100.0 0.0 0.0 0.0 100.0" Properties=species:S:1:pos:R:3 Energy=-406263.01633481344 Energy_pyscf=-406249.974991998 Energy_pyscf_og=-406262.6158674533 pbc="F F F"
C       52.45325948      49.71713100      49.75293150
C       50.82649986      51.52102591      48.45195985
C       53.07331372      50.78529352      48.79957431
C       52.17833448      51.76905608      48.41613307
C       46.77341630      50.25538978      50.15486309
C       51.07894156      49.60119720      49.82070409
C       50.19388709      50.44331338      49.07206484
O       50.36565051      49.42579256      52.01862073
O       48.47875194      51.93879180      50.25976415
O       49.32307002      47.96917571      50.54528444
C       50.29663001      48.92550836      50.95992285
C       48.07802904      50.86479719      49.81066058
O       48.77341353      50.05438881      48.93965112
H       48.74633744      47.72314800      51.22157187
H       53.19308480      49.08034068      50.26421537
H       50.15678310      52.29271716      48.19117284
H       54.09844967      50.87936752      48.75923471
H       52.64311911      52.67327864      48.03858399
H       46.26773803      49.67133898      49.45680189
H       46.98099782      49.64755416      51.07576782
H       46.14261613      51.12175423      50.44919475
