21
Lattice="100.0 0.0 0.0 0.0 100.0 0.0 0.0 0.0 100.0" Properties=species:S:1:pos:R:3 Energy=-406281.62941628 Energy_pyscf=-406277.29184990795 Energy_pyscf_og=-406281.2319741228 pbc="F F F"
C       52.36839598      50.05700872      50.44617682
C       50.83620056      51.34335739      48.57390331
C       52.96066946      50.94689745      49.56010342
C       52.20252527      51.45744025      48.52700897
C       46.73914028      50.93323878      50.80112050
C       50.98804079      49.90905962      50.44167881
C       50.20200732      50.72512883      49.61983045
O       49.11827400      48.55039647      51.15272938
O       48.51766704      52.40388761      51.17397108
O       50.99717887      48.33269530      52.27907962
C       50.31132334      48.88752591      51.33162254
C       48.11323894      51.39400539      50.60460925
O       48.81644452      50.53479097      49.63606125
H       50.36274855      47.54297056      52.46361606
H       52.88723118      49.68716317      51.33063664
H       50.20691822      51.64179099      47.75506067
H       54.06533325      51.20535912      49.60096115
H       52.56391151      51.95069615      47.61421188
H       46.80284047      50.34433834      51.76367555
H       46.07274758      51.79339642      50.90013745
H       46.35512702      50.18999129      50.05197832
