21
Lattice="100.0 0.0 0.0 0.0 100.0 0.0 0.0 0.0 100.0" Properties=species:S:1:pos:R:3 Energy=-406280.6548293825 Energy_pyscf=-406277.0316757018 Energy_pyscf_og=-406280.25536838913 pbc="F F F"
C       52.27738967      50.22484555      50.38479358
C       50.67286776      51.59785442      48.61286772
C       52.94506234      51.01952123      49.43575334
C       52.04473488      51.64534259      48.53077013
C       46.42142694      51.09566635      50.68192424
C       50.81557321      50.14413010      50.52873675
C       49.98652190      50.97294556      49.70111037
O       49.01202479      49.33551157      51.78271737
O       48.36013872      52.42137178      51.50426649
O       50.93644177      48.13243520      51.79943450
C       50.18512023      49.27185191      51.47946065
C       47.83038445      51.57667865      50.83745008
O       48.60728468      51.04559440      49.68736178
H       50.26848100      47.62932255      52.43557072
H       52.75352788      49.43401394      50.95895741
H       50.11672366      52.20534769      47.86195473
H       54.01315897      51.05023517      49.15820714
H       52.58407981      52.03148755      47.69198848
H       46.65970139      50.03656987      50.44227211
H       45.83842725      51.26055923      51.57150626
H       46.08410640      51.55318838      49.82881996
