21
Lattice="100.0 0.0 0.0 0.0 100.0 0.0 0.0 0.0 100.0" Properties=species:S:1:pos:R:3 Energy=-406273.52035234857 Energy_pyscf=-406268.31394699356 Energy_pyscf_og=-406273.12392063456 pbc="F F F"
C       52.27730260      49.46261367      49.75606372
C       51.20917815      51.92132367      49.13647860
C       53.03388349      50.33523663      48.97876013
C       52.48779533      51.51139674      48.63413278
C       46.97199870      51.27797207      50.81791881
C       50.99939819      49.78016578      50.21289311
C       50.36257411      51.00731143      49.79565562
O       49.19380718      48.95256188      51.76644478
O       47.93876983      49.98640009      49.15821483
O       51.05087391      47.62756346      51.18267324
C       50.32563878      48.77615849      51.10758933
C       48.14942319      50.75000854      50.05010836
O       49.31582421      51.32814456      50.51239503
H       50.96188588      47.13883305      52.00002133
H       52.67280712      48.50893480      50.15000413
H       50.89107512      52.93466415      48.84211441
H       54.04300654      49.95873007      48.68832738
H       53.04621756      52.25099337      48.01731250
H       46.32630273      51.56745150      49.97683925
H       46.63730798      50.36838161      51.32255760
H       47.01490606      52.13548082      51.45205712
