21
Lattice="100.0 0.0 0.0 0.0 100.0 0.0 0.0 0.0 100.0" Properties=species:S:1:pos:R:3 Energy=-406271.3633877722 Energy_pyscf=-406266.24111269234 Energy_pyscf_og=-406270.96419542766 pbc="F F F"
C       52.48597137      49.33105661      49.34272074
C       51.14077889      51.89845782      49.15261574
C       52.98490647      50.36803056      48.53888267
C       52.28109133      51.59846795      48.52252272
C       46.92842225      51.39739466      50.47921791
C       51.35002585      49.65679507      50.14364503
C       50.59230595      50.88876954      49.98913074
O       49.78036387      47.66841622      50.38068420
O       48.35107289      51.60763545      48.50710180
O       51.58275745      48.05387683      51.78815398
C       50.67626122      48.39509938      50.80552975
C       48.25536867      51.39418853      49.69565357
O       49.37596376      51.16146852      50.57319273
H       51.09860638      47.34327967      52.25552949
H       53.09023066      48.43788627      49.57711744
H       50.76853049      53.00128970      49.09845801
H       53.69485813      50.37550766      47.75505522
H       52.86589269      52.33285644      48.01139803
H       46.33947117      52.23935525      50.11164736
H       46.35797270      50.46578655      50.26401414
H       47.07492143      51.21798914      51.60989896
