21
Lattice="100.0 0.0 0.0 0.0 100.0 0.0 0.0 0.0 100.0" Properties=species:S:1:pos:R:3 Energy=-406272.14209518646 Energy_pyscf=-406272.3398348042 Energy_pyscf_og=-406271.7420882982 pbc="F F F"
C       52.25924235      49.72417388      49.77362160
C       51.06537740      52.07004354      48.93265495
C       53.08222808      50.68337541      49.01995089
C       52.42134080      51.78419331      48.60161340
C       46.77472147      51.47750512      50.51243987
C       51.04840275      50.07383450      50.22459955
C       50.49048705      51.31708110      49.96206692
O       49.85558116      49.17705785      52.07828179
O       48.03868705      49.63219446      49.79244659
O       50.16861484      47.80791296      50.34770730
C       50.34708715      48.97158112      51.02048945
C       48.05266047      50.75590611      50.19911353
O       49.13118696      51.67627579      50.30955369
H       49.62873460      47.18104460      50.86947116
H       52.50883066      48.68696569      49.98385019
H       50.61615642      52.97032969      48.58995207
H       54.13889817      50.33702057      48.72194014
H       52.91660759      52.49606046      47.86244161
H       47.10644441      52.35607344      51.13305211
H       46.45297302      51.77341080      49.52278662
H       45.94726254      50.89392026      50.92522197
