21
Lattice="100.0 0.0 0.0 0.0 100.0 0.0 0.0 0.0 100.0" Properties=species:S:1:pos:R:3 Energy=-406279.8073779244 Energy_pyscf=-406273.7178417946 Energy_pyscf_og=-406279.41322533146 pbc="F F F"
C       52.51841310      49.94773228      49.84630075
C       50.87760604      51.50983795      48.37667129
C       53.04840950      50.92496154      49.03309719
C       52.27550702      51.67467815      48.23963746
C       46.79136566      51.46627720      49.92662125
C       51.17275493      49.94173602      50.17237377
C       50.26945462      50.73923254      49.39440286
O       49.40313795      48.87829274      51.38340705
O       48.86676963      52.08881769      50.96739459
O       51.27396909      47.83912755      51.46662061
C       50.60944535      48.95445674      51.07271086
C       48.22502154      51.37097365      50.23609809
O       48.88765381      50.54115882      49.27805309
H       50.65971407      47.45083849      52.12323064
H       53.25250922      49.23405420      50.16184353
H       50.20312278      51.97372709      47.63329087
H       54.13238215      50.97698813      48.99569057
H       52.76709973      52.38906954      47.55280120
H       46.04782164      50.90177783      50.55166704
H       46.44524109      52.52506053      50.00042243
H       46.54857230      50.99794760      48.87270450
