21
Lattice="100.0 0.0 0.0 0.0 100.0 0.0 0.0 0.0 100.0" Properties=species:S:1:pos:R:3 Energy=-406271.8458643575 Energy_pyscf=-406272.50066472765 Energy_pyscf_og=-406271.4407506852 pbc="F F F"
C       52.45954755      49.90349169      49.92780111
C       50.88364049      51.52662355      48.27483483
C       53.08831227      50.79393254      48.97484772
C       52.21315532      51.55121750      48.20107615
C       46.71206025      51.39802644      49.95989585
C       51.02816380      49.86421445      50.05288785
C       50.24215644      50.73196633      49.24856629
O       49.51957874      49.03595448      51.72156654
O       48.89884447      52.36137605      50.90477925
O       51.35770178      47.78618297      51.18933484
C       50.54112074      48.88701045      51.03095703
C       48.35068683      51.61610692      50.14489605
O       48.91998087      50.73960998      49.28785873
H       50.88018534      47.37281527      51.91924554
H       53.04456191      49.34966199      50.59571414
H       50.21726581      52.12716049      47.69024755
H       54.13967378      50.94393452      49.04097967
H       52.82258630      52.26177077      47.65973510
H       46.17599547      50.57801876      50.61954146
H       46.27200758      52.35516648      49.94089520
H       46.58115140      51.14899131      48.89086820
