21
Lattice="100.0 0.0 0.0 0.0 100.0 0.0 0.0 0.0 100.0" Properties=species:S:1:pos:R:3 Energy=-406283.6633702765 Energy_pyscf=-406275.03252148407 Energy_pyscf_og=-406283.28058912733 pbc="F F F"
C       52.51890139      49.83275110      49.73010874
C       50.90403326      52.15829926      48.87440452
C       53.04682161      50.88885161      48.95086727
C       52.30492438      52.08779603      48.54885825
C       46.71101868      51.08725304      50.15206846
C       51.20574116      49.91531445      50.11802134
C       50.35204933      51.03229644      49.55718765
O       49.63303007      49.08055628      51.67766588
O       48.26398163      52.83561055      49.74132615
O       51.32824071      47.77980196      51.06326286
C       50.56011266      48.87020419      50.91218394
C       48.06704475      51.66133337      49.80673582
O       48.97793589      50.72905099      49.65571885
H       50.68625666      47.03187422      51.36223159
H       53.08156291      48.90248490      49.85407261
H       50.23971971      52.92142552      48.60398607
H       54.06188341      50.87759156      48.43822184
H       52.82848038      52.86764155      47.99772586
H       45.98255212      51.96511178      50.17964768
H       46.27591495      50.27023567      49.56691065
H       46.61824223      50.71447799      51.21386062
