21
Lattice="100.0 0.0 0.0 0.0 100.0 0.0 0.0 0.0 100.0" Properties=species:S:1:pos:R:3 Energy=-406271.5087543215 Energy_pyscf=-406252.01405124704 Energy_pyscf_og=-406271.10027926794 pbc="F F F"
C       52.40379583      49.47094329      49.62109753
C       50.95270488      51.95154474      49.54277665
C       52.87301919      50.53717413      48.75571194
C       52.13987033      51.72923650      48.74864586
C       46.89570360      51.50723460      50.66682671
C       51.19385345      49.63703104      50.33527436
C       50.48712619      50.75917995      50.31669056
O       49.45339144      48.16899323      51.09973020
O       48.63085692      51.44561831      48.67154754
O       51.59516377      47.73307212      51.72815261
C       50.65261196      48.52737123      51.10846627
C       48.25946822      51.33935919      49.91012085
O       49.26262071      50.80789505      50.74235459
H       51.09650927      46.87192369      51.86925354
H       53.03162796      48.63010057      49.61563001
H       50.71018350      53.00924902      49.76245475
H       53.70912564      50.34950495      48.15368906
H       52.48969183      52.48274199      48.15725538
H       46.28498058      52.17478227      50.03592063
H       46.25351183      50.64803043      50.80496765
H       47.04588599      52.06867300      51.62300313
