21
Lattice="100.0 0.0 0.0 0.0 100.0 0.0 0.0 0.0 100.0" Properties=species:S:1:pos:R:3 Energy=-406274.3349649841 Energy_pyscf=-406274.534935061 Energy_pyscf_og=-406273.93276466127 pbc="F F F"
C       52.33624394      49.66733746      49.81616001
C       51.09902252      52.10178648      49.12707683
C       53.00846110      50.62509275      49.05907352
C       52.34916772      51.71359046      48.64363046
C       46.82490361      51.59711083      50.42671688
C       51.10955678      50.01177394      50.43936700
C       50.46886075      51.17511222      49.92636411
O       49.51361985      49.18272009      52.03424536
O       48.12081914      49.81946271      49.23896075
O       50.42509853      47.76054739      50.51403281
C       50.28250254      48.96206611      51.09506613
C       48.02403577      50.84379399      49.84918407
O       49.19234507      51.55128701      50.28722246
H       49.88110435      47.17617010      51.01554549
H       52.84536270      48.70443370      49.89087637
H       50.42962452      52.76485580      48.64311068
H       53.89745226      50.45677812      48.56604684
H       52.80835076      52.32329283      47.87676109
H       47.20672661      52.28250925      51.17197794
H       46.13291218      52.20344477      49.88698053
H       46.06233550      50.90542636      50.87465529
