21
Lattice="100.0 0.0 0.0 0.0 100.0 0.0 0.0 0.0 100.0" Properties=species:S:1:pos:R:3 Energy=-406270.2007030354 Energy_pyscf=-406267.7788054284 Energy_pyscf_og=-406269.788316228 pbc="F F F"
C       52.33034968      49.34835945      49.15471319
C       50.71706782      51.66215485      48.58309135
C       52.83152672      50.48967831      48.41584632
C       51.96623730      51.58338143      48.12540146
C       46.77856676      51.47892450      50.32264281
C       50.96806886      49.36714830      49.59083786
C       50.14251652      50.51876939      49.25422883
O       49.47371850      47.52159232      50.23118211
O       47.75411823      51.83205820      48.15876058
O       51.00164032      48.25098133      51.63353144
C       50.39412847      48.29675331      50.42677326
C       47.80858431      51.34562659      49.25232495
O       48.95344539      50.72396265      49.95521382
H       50.56251017      47.49710124      52.09371099
H       52.92255197      48.45272864      49.26408984
H       50.31772455      52.71625225      48.73217133
H       53.94703918      50.55935419      48.48250156
H       52.34012574      52.56205287      47.83070209
H       46.04304071      52.26140752      49.98843311
H       46.44045801      50.47767759      50.35795700
H       47.31406103      51.82614250      51.20969394
