21
Lattice="100.0 0.0 0.0 0.0 100.0 0.0 0.0 0.0 100.0" Properties=species:S:1:pos:R:3 Energy=-406279.6061234128 Energy_pyscf=-406273.6520301047 Energy_pyscf_og=-406279.2069717939 pbc="F F F"
C       52.46962193      49.86266332      49.90701528
C       50.86526083      51.67430115      48.51937075
C       53.02704997      50.90365128      49.09574884
C       52.23766748      51.68671716      48.18683757
C       46.80134808      51.43256311      49.91542116
C       51.09884106      49.72174099      50.06601343
C       50.25506609      50.68579150      49.31955070
O       49.31027559      48.75891106      51.21854178
O       48.85773896      52.42372075      50.67298814
O       51.41716793      47.97167163      51.63863811
C       50.54090324      48.80338453      50.98167923
C       48.23369503      51.67966927      49.98850107
O       48.87411029      50.62259485      49.26915843
H       50.95086747      47.30353953      52.16895010
H       53.20977066      49.08270967      50.26576535
H       50.11169213      52.23278617      48.05533689
H       54.05289070      50.89941090      48.86305816
H       52.80896529      52.42351811      47.62623994
H       46.34004449      51.01638252      50.76603758
H       46.36807853      52.41556773      49.66574697
H       46.47320111      50.73206671      49.08131558
