21
Lattice="100.0 0.0 0.0 0.0 100.0 0.0 0.0 0.0 100.0" Properties=species:S:1:pos:R:3 Energy=-406269.7051607647 Energy_pyscf=-406267.5124247953 Energy_pyscf_og=-406269.2992481509 pbc="F F F"
C       52.28017930      49.35408127      49.67759805
C       50.88294209      51.30744558      48.48839187
C       52.88945336      50.13207740      48.73248215
C       52.22367825      51.13804603      48.07400070
C       46.60575151      50.88005854      49.95753418
C       50.86390869      49.32510585      49.84572928
C       50.20823984      50.36230462      49.29438794
O       49.31378882      47.87181609      51.01448690
O       48.53666651      51.48695488      51.37101728
O       51.20368894      48.27525854      51.95874114
C       50.37566943      48.50013487      50.91623051
C       48.04838872      50.98130332      50.42305387
O       48.70745140      50.47673779      49.30892923
H       50.56403132      47.88182538      52.58284832
H       52.77214156      48.62275138      50.35325372
H       50.27964318      52.12710713      48.15914622
H       53.94704737      49.78846634      48.55142349
H       52.82564216      51.83907296      47.49269445
H       46.49863169      49.84343541      49.49003150
H       45.84702877      50.94347650      50.65635791
H       46.59043818      51.54670132      49.08661501
