21
Lattice="100.0 0.0 0.0 0.0 100.0 0.0 0.0 0.0 100.0" Properties=species:S:1:pos:R:3 Energy=-406266.8261517956 Energy_pyscf=-406260.5143877202 Energy_pyscf_og=-406266.4275283895 pbc="F F F"
C       52.32024213      49.38908772      49.53487698
C       51.20101276      52.05821431      49.54670401
C       52.94091490      50.46852184      48.78775916
C       52.37034484      51.65383343      48.81672220
C       46.91095139      51.32828530      50.74684590
C       51.10768697      49.67495568      50.04320902
C       50.51796666      50.95240273      50.01360107
O       49.46605519      48.03981198      50.70439828
O       48.34921115      51.81275452      48.93463856
O       51.37898435      48.12527551      52.01854632
C       50.51582742      48.56767733      51.00491283
C       48.18705872      51.33169168      49.97286832
O       49.28787814      50.90184436      50.59875659
H       50.94029873      47.33876150      52.27203429
H       52.74400162      48.41693065      49.63465683
H       50.80895060      53.06240640      49.46734099
H       53.85531897      50.28087285      48.12612695
H       52.68052204      52.48136085      48.22461437
H       46.35558634      52.31075378      50.45695281
H       46.23978063      50.42494423      50.54993146
H       47.18589103      51.20953390      51.78667866
