21
Lattice="100.0 0.0 0.0 0.0 100.0 0.0 0.0 0.0 100.0" Properties=species:S:1:pos:R:3 Energy=-406281.89926702424 Energy_pyscf=-406275.75604254106 Energy_pyscf_og=-406281.5014524356 pbc="F F F"
C       52.47558893      49.90853677      49.96932177
C       50.83496129      51.50497531      48.34426690
C       53.03374831      50.86811253      49.01743110
C       52.16637258      51.71593076      48.26943291
C       46.73143472      51.48931905      49.89351501
C       51.10384741      49.77326737      50.05101800
C       50.24620680      50.56721574      49.20911429
O       49.36557632      49.11859408      51.45192616
O       48.89581906      51.99028551      50.79018375
O       51.34941976      47.90558286      51.58726117
C       50.50229934      48.90016683      51.14416968
C       48.24865359      51.31872102      50.04336228
O       48.85298146      50.41224315      49.14028972
H       51.01152225      47.29141915      52.30622706
H       53.25548203      49.17413513      50.26402217
H       50.27575424      52.18137032      47.68444299
H       54.17427426      51.03209347      49.02974633
H       52.51748737      52.42090894      47.58794617
H       46.15880458      50.70113320      50.45710944
H       46.58810166      52.53532229      50.18511421
H       46.47589046      51.48815694      48.88165696
