21
Lattice="100.0 0.0 0.0 0.0 100.0 0.0 0.0 0.0 100.0" Properties=species:S:1:pos:R:3 Energy=-406276.5290019305 Energy_pyscf=-406271.5112555518 Energy_pyscf_og=-406276.11356272065 pbc="F F F"
C       52.37556714      49.70623072      49.74249726
C       51.09161299      51.91038311      48.92112338
C       53.06285234      50.61630648      49.02781295
C       52.41564401      51.82522088      48.52196905
C       46.75494704      51.52144276      50.52275781
C       51.04235156      49.99424256      50.30632505
C       50.46990834      51.16625100      49.91488914
O       49.66182196      49.28474155      52.09619762
O       48.01903544      49.87883823      49.26297262
O       50.37011632      47.73960876      50.71599305
C       50.27381035      49.00645257      51.05572403
C       47.98082662      50.89762511      49.84407250
O       49.14041413      51.61548808      50.29798255
H       49.61998539      47.13456301      51.00939943
H       52.89585137      48.80677802      50.06072937
H       50.38922965      52.62959089      48.51686369
H       54.14532487      50.40479840      48.72812528
H       52.75504850      52.48116030      47.71971109
H       46.97736181      51.79594740      51.62425737
H       46.64596425      52.55430736      50.04967715
H       45.93635796      50.85990978      50.44291518
