21
Lattice="100.0 0.0 0.0 0.0 100.0 0.0 0.0 0.0 100.0" Properties=species:S:1:pos:R:3 Energy=-406267.53942184057 Energy_pyscf=-406267.516650069 Energy_pyscf_og=-406267.12673180015 pbc="F F F"
C       52.72791860      50.26831344      50.25972211
C       50.82881413      51.67964580      48.71000742
C       53.12229441      50.94538311      49.11669744
C       52.19727103      51.75635162      48.42535349
C       46.80806798      51.46246528      49.46603315
C       51.32798445      50.10175828      50.40785728
C       50.34568117      50.81658183      49.67238875
O       50.80425080      49.10445934      52.52411835
O       48.48556548      52.56126415      50.91049218
O       50.49190919      47.82312280      50.57943124
C       50.77034128      48.91686596      51.35182698
C       48.14621653      51.65650956      50.15394924
O       48.97867941      50.51066428      49.84943801
H       50.19769235      47.23688527      51.26228913
H       53.44487899      49.77266864      50.91566458
H       50.21959554      52.16820384      47.99505622
H       54.17402147      50.82704832      48.84615702
H       52.53932430      52.21701792      47.49441308
H       46.11229571      51.43438330      50.39142455
H       46.57488209      52.37636248      48.89957534
H       46.91589687      50.44740345      48.96853540
