21
Lattice="100.0 0.0 0.0 0.0 100.0 0.0 0.0 0.0 100.0" Properties=species:S:1:pos:R:3 Energy=-406273.1640201387 Energy_pyscf=-406239.3454407428 Energy_pyscf_og=-406272.77171427873 pbc="F F F"
C       52.38339845      49.52036803      49.66511117
C       51.09493666      51.91563324      49.52783635
C       52.84369551      50.32368222      48.62146386
C       52.24665173      51.71245825      48.74967337
C       46.91138131      51.52258010      50.70801042
C       51.20688148      49.67718575      50.23539062
C       50.52886495      50.91641938      50.22214252
O       49.50034688      47.93837898      50.63521255
O       48.22308840      51.37384124      48.75412751
O       51.41893002      47.98711655      51.86571403
C       50.64025781      48.52686919      50.99966547
C       48.16521240      51.39509462      49.94929524
O       49.26769308      50.75524072      50.70524307
H       51.03094736      47.10559410      52.17433924
H       52.94849724      48.63986566      49.69076890
H       50.80982817      53.04507156      49.80596769
H       53.79708654      50.28505585      48.08878096
H       52.69465152      52.59961762      48.20227413
H       46.22868682      52.28081763      50.22486514
H       46.24065059      50.61084851      50.70118727
H       47.16882228      51.75803455      51.72180468
