21
Lattice="100.0 0.0 0.0 0.0 100.0 0.0 0.0 0.0 100.0" Properties=species:S:1:pos:R:3 Energy=-406275.08854932373 Energy_pyscf=-406272.31359364995 Energy_pyscf_og=-406274.69645883254 pbc="F F F"
C       52.48347038      49.90972877      49.71411632
C       50.92160029      52.04785786      48.78754862
C       53.02491938      50.97156379      48.95261427
C       52.26558763      52.06051626      48.47590285
C       46.72292749      51.17103413      50.18275695
C       51.13529474      49.94096561      50.06175800
C       50.37060641      50.96996265      49.44868068
O       49.51071291      49.05087261      51.67922383
O       48.53395446      52.84886478      50.09283631
O       51.11755207      47.71280005      50.95551396
C       50.51446627      48.97600396      50.98485358
C       48.06853982      51.65758270      50.08779964
O       48.99733790      50.72446176      49.49989425
H       50.66159566      47.01637400      51.52187159
H       53.15795365      48.99822438      49.90512884
H       50.31921970      52.80551110      48.39800287
H       54.02969649      50.86460367      48.53881926
H       52.68293530      52.95150450      47.97006711
H       45.86508104      51.85448472      50.14082892
H       46.55139365      50.42832302      49.44239472
H       46.70340771      50.52161107      51.13007960
