21
Lattice="100.0 0.0 0.0 0.0 100.0 0.0 0.0 0.0 100.0" Properties=species:S:1:pos:R:3 Energy=-406270.73909074184 Energy_pyscf=-406272.8598460119 Energy_pyscf_og=-406270.3355645604 pbc="F F F"
C       52.28097669      49.70544255      50.04547401
C       50.74469470      51.53912247      48.62359934
C       52.94881219      50.47196482      49.11455363
C       52.14629546      51.39659673      48.40455882
C       46.65035854      50.83575737      50.57023136
C       50.93549401      49.91931815      50.30195345
C       50.16707504      50.73572503      49.57634688
O       49.36534530      48.17113777      50.84630814
O       48.55582674      52.23497946      51.24970588
O       50.82714139      48.70800054      52.45785815
C       50.27261445      48.86083785      51.19852010
C       48.03426862      51.35118506      50.59547678
O       48.79147823      50.70624684      49.64111710
H       50.67637033      47.74385009      52.62553675
H       52.81435607      48.94296051      50.51060867
H       50.27449238      52.31893640      48.13372190
H       53.98803252      50.27494122      49.05588557
H       52.68265975      51.97503923      47.56880849
H       46.59139382      49.79481624      50.82612214
H       45.85662564      51.30077059      51.13484455
H       46.12207697      50.88162793      49.59059667
