21
Lattice="100.0 0.0 0.0 0.0 100.0 0.0 0.0 0.0 100.0" Properties=species:S:1:pos:R:3 Energy=-406276.6853893032 Energy_pyscf=-406274.33005749556 Energy_pyscf_og=-406276.28445088613 pbc="F F F"
C       52.51471551      49.25814393      49.95185168
C       51.11678825      51.59792015      49.21418082
C       53.11259234      50.14793231      49.11194949
C       52.37707776      51.33778813      48.78534307
C       46.94088181      50.74145726      50.88868932
C       51.12722376      49.50703309      50.33560440
C       50.50112145      50.64788887      49.99249161
O       51.17878795      47.71756709      51.82674000
O       48.11249531      51.03926396      48.61692245
O       49.18356955      48.24818698      50.80718987
C       50.48133419      48.44579712      51.18742336
C       48.09720141      50.86345374      49.80374294
O       49.29240558      50.94274466      50.64793484
H       48.99824413      47.33510416      51.29824408
H       53.12916202      48.45007264      50.33401930
H       50.51004708      52.46133745      49.03434934
H       54.11588581      50.04775408      48.64847809
H       52.96964510      52.10873250      48.16674226
H       45.99010627      50.49927739      50.47136323
H       47.23293146      49.88243415      51.56147225
H       46.64331736      51.61413950      51.54900417
