21
Lattice="100.0 0.0 0.0 0.0 100.0 0.0 0.0 0.0 100.0" Properties=species:S:1:pos:R:3 Energy=-406279.3674813351 Energy_pyscf=-406275.890126492 Energy_pyscf_og=-406278.9531583796 pbc="F F F"
C       52.46831952      49.81498285      49.85613181
C       50.79205902      51.39864327      48.28556759
C       53.01083207      50.85625094      49.02528804
C       52.19873089      51.55990741      48.18830072
C       46.68420016      51.61711316      49.69602418
C       51.02557840      49.79118012      50.15361191
C       50.24813899      50.71699717      49.36064587
O       49.50906365      48.71893256      51.66402396
O       48.60976817      52.31969268      51.10012391
O       51.61628394      47.75493162      51.39807400
C       50.59873830      48.65739946      51.05838077
C       48.15741091      51.67191076      50.19967577
O       48.84406414      50.70502160      49.44685443
H       51.45326246      47.45429428      52.34208624
H       53.12651262      49.07660998      50.26223308
H       50.19126772      52.16414811      47.76929769
H       54.05959476      50.91385867      49.05745344
H       52.62501156      52.34591435      47.57622657
H       46.19285160      50.71772373      50.20713108
H       46.20686743      52.53085831      50.11169493
H       46.66503899      51.49646268      48.58413807
