21
Lattice="100.0 0.0 0.0 0.0 100.0 0.0 0.0 0.0 100.0" Properties=species:S:1:pos:R:3 Energy=-406267.4719500114 Energy_pyscf=-406269.9513517262 Energy_pyscf_og=-406267.0671275948 pbc="F F F"
C       52.36873711      49.70749007      49.75170478
C       51.07774440      52.05784842      48.92050964
C       53.10423540      50.62865088      49.00548444
C       52.41766867      51.74877589      48.51396695
C       46.82294415      51.60921054      50.63361315
C       51.12426733      49.98310902      50.31431191
C       50.50349329      51.18601147      49.77270495
O       49.52648626      49.30961379      52.04175786
O       47.94896514      49.72644937      49.42410675
O       50.27467214      47.72336095      50.62209455
C       50.22060595      48.98255343      51.11143962
C       48.01496194      50.78902817      49.94773684
O       49.19828265      51.52060776      50.26338536
H       49.41166181      47.30226036      50.88345662
H       52.99019377      48.88319970      49.95892556
H       50.49149285      52.74690636      48.33244297
H       54.17935725      50.51429407      48.89518592
H       53.02060289      52.40327487      47.73493774
H       46.97649592      51.88522598      51.68884188
H       46.41439462      52.28217877      49.91725589
H       45.97007803      50.82184278      50.66860302
