21
Lattice="100.0 0.0 0.0 0.0 100.0 0.0 0.0 0.0 100.0" Properties=species:S:1:pos:R:3 Energy=-406276.9118004468 Energy_pyscf=-406262.06881284475 Energy_pyscf_og=-406276.5066798979 pbc="F F F"
C       52.20350112      49.48424904      49.77159570
C       51.08407107      52.02736223      49.58238618
C       52.84198225      50.47461099      49.05719948
C       52.14220313      51.76123020      48.79122397
C       46.72847772      51.72865582      50.54173119
C       51.11123983      49.75152766      50.49213086
C       50.30378413      51.00611591      50.24479370
O       49.23680210      48.37784188      51.01623903
O       48.04794219      50.72444133      48.76804756
O       51.31225547      47.66579769      51.64787122
C       50.44968948      48.58993794      51.08320471
C       47.98437465      51.20092573      49.87828473
O       49.14624391      51.22154899      50.82113945
H       50.85953994      47.02372690      52.23851689
H       52.70547374      48.43566130      49.62218930
H       50.55933214      53.03243355      49.47997999
H       53.80612646      50.36355083      48.45180084
H       52.59459388      52.54122421      48.10275337
H       46.06927131      51.98577523      49.74455041
H       46.28963396      50.95450052      51.22629853
H       46.92425519      52.52017685      51.31623511
