21
Lattice="100.0 0.0 0.0 0.0 100.0 0.0 0.0 0.0 100.0" Properties=species:S:1:pos:R:3 Energy=-406267.5681816484 Energy_pyscf=-406235.90269448544 Energy_pyscf_og=-406267.1616515997 pbc="F F F"
C       52.63768907      49.46256351      49.48391849
C       51.01836260      51.81071872      49.11568587
C       52.96109516      50.44982623      48.70882500
C       52.35015680      51.64720325      48.63075686
C       46.87024520      51.50941323      50.46031732
C       51.27427613      49.70259759      50.14695179
C       50.51954928      50.82643402      49.94042947
O       49.58329089      48.17462429      50.89387315
O       48.15893589      51.41813771      48.44031165
O       51.76309244      47.72416595      51.59698336
C       50.91036594      48.45925213      50.81440750
C       48.13158718      51.37256021      49.65121590
O       49.28596045      50.85197382      50.42569359
H       51.33179178      46.84761941      51.82505812
H       53.28700953      48.45790836      49.63487343
H       50.63859103      52.78121986      48.96837051
H       53.84059681      50.28527951      48.05173156
H       52.72952961      52.46888252      47.84783715
H       46.34954759      52.44939743      50.12539997
H       46.25248012      50.61643595      50.40444524
H       47.17587742      51.53257011      51.44760423
