21
Lattice="100.0 0.0 0.0 0.0 100.0 0.0 0.0 0.0 100.0" Properties=species:S:1:pos:R:3 Energy=-406273.0363005859 Energy_pyscf=-406272.6186475581 Energy_pyscf_og=-406272.6326652066 pbc="F F F"
C       52.45787846      49.88327974      50.10518678
C       50.97757680      51.66274068      48.73843819
C       53.13288039      50.69490020      49.15616078
C       52.33186284      51.60047510      48.48067988
C       46.70840814      51.34365176      50.13988973
C       51.08856777      49.91391719      50.30121157
C       50.26416887      50.71703252      49.54205039
O       49.22291788      49.15512783      51.69015792
O       48.70259501      52.00567483      51.43918071
O       51.18702202      48.00197539      51.86165671
C       50.37508631      48.97905057      51.25464927
C       48.17660199      51.48011715      50.47254163
O       48.92703787      50.91921650      49.42115404
H       50.63813064      47.47396965      52.50839916
H       52.89951578      49.27425979      50.79125811
H       50.32831781      52.26075598      48.12732738
H       54.19670634      50.52677371      49.06894954
H       52.67526894      52.20194112      47.65375176
H       46.49728632      52.06079678      49.41770391
H       46.72397794      50.47424368      49.45074596
H       45.94271765      51.12660734      50.85397402
