21
Lattice="100.0 0.0 0.0 0.0 100.0 0.0 0.0 0.0 100.0" Properties=species:S:1:pos:R:3 Energy=-406273.4047523763 Energy_pyscf=-406264.7905184879 Energy_pyscf_og=-406273.00137593935 pbc="F F F"
C       52.16021223      49.39566064      49.32515004
C       51.31648756      52.07228476      49.05476686
C       53.00971224      50.31509862      48.76223242
C       52.60268417      51.63446039      48.59522198
C       47.00902807      50.92993893      50.90020392
C       51.04504428      49.80107743      50.01031179
C       50.54794183      51.07671803      49.77475004
O       49.50248002      49.16822543      51.58941382
O       47.68920710      50.41455395      48.58262745
O       51.23204181      47.79889822      51.18133964
C       50.52918902      48.90764777      50.96763835
C       47.93634767      50.81175336      49.69398500
O       49.20955537      51.51961550      50.15679792
H       50.66673473      47.06398274      51.57406969
H       52.48284541      48.34908256      49.51018938
H       50.93912169      53.00048223      48.85335876
H       53.81511433      49.78029267      48.29211335
H       53.35977513      52.40988656      48.24130110
H       46.03060218      51.33788849      50.63686097
H       46.81829501      49.84484206      51.06286043
H       47.54607892      51.46144791      51.76896603
