21
Lattice="100.0 0.0 0.0 0.0 100.0 0.0 0.0 0.0 100.0" Properties=species:S:1:pos:R:3 Energy=-406267.7024004028 Energy_pyscf=-406265.05289042176 Energy_pyscf_og=-406267.30228770373 pbc="F F F"
C       52.28846607      49.47776271      49.58670527
C       51.19373320      52.02085495      49.53031008
C       52.84735921      50.49604257      48.68538217
C       52.40180766      51.74140230      48.81362034
C       46.83082870      51.41950668      50.76127348
C       51.14908705      49.82381054      50.35771608
C       50.58220734      51.03654534      50.22791466
O       49.38146614      48.28710037      50.84341056
O       48.17933221      51.08169526      48.81307185
O       51.38311599      47.86321311      51.88175875
C       50.54142521      48.59906148      51.12237019
C       48.11422709      51.15241843      50.02881829
O       49.29798964      51.20621951      50.81253612
H       50.86916711      47.00111138      52.17515280
H       52.77159970      48.50618349      49.65451068
H       50.84430154      53.07201045      49.73437531
H       53.80856692      50.27875302      48.12364425
H       52.63523245      52.59284980      48.24688914
H       46.44050504      52.33464908      50.32718136
H       46.12588984      50.64611661      50.50238273
H       47.26038458      51.29535433      51.76077176
