21
Lattice="100.0 0.0 0.0 0.0 100.0 0.0 0.0 0.0 100.0" Properties=species:S:1:pos:R:3 Energy=-406280.3893106367 Energy_pyscf=-406273.43198385654 Energy_pyscf_og=-406279.97583584784 pbc="F F F"
C       52.20312802      49.48710348      49.71852396
C       50.99811629      51.94061658      49.53361737
C       52.85348351      50.45610838      48.86880678
C       52.16210644      51.64654654      48.78203310
C       46.75673619      51.63006711      50.59555132
C       51.02619754      49.75738956      50.37200579
C       50.30209501      50.98993658      50.22509642
O       49.23278760      48.33767179      51.00960453
O       48.07356930      50.83220139      48.78631503
O       51.30218690      47.89744971      51.79596779
C       50.40563677      48.63762733      51.18188439
C       47.99981749      51.32554972      49.93228612
O       49.11305750      51.28911735      50.82467343
H       50.98360843      46.94526084      51.87540351
H       52.69069249      48.57151712      49.85062863
H       50.57517073      52.90484086      49.38782764
H       53.89816589      50.32488241      48.57069614
H       52.64583028      52.41166432      48.11640620
H       46.13705408      52.12926119      49.84440669
H       46.26971552      50.83589936      51.18610839
H       46.77999676      52.51499087      51.32671587
