21
Lattice="100.0 0.0 0.0 0.0 100.0 0.0 0.0 0.0 100.0" Properties=species:S:1:pos:R:3 Energy=-406279.7053382134 Energy_pyscf=-406277.2724287599 Energy_pyscf_og=-406279.3017086997 pbc="F F F"
C       52.57868043      49.46645050      49.44833333
C       51.01231568      51.79932292      49.07556074
C       53.02635102      50.43860680      48.60752458
C       52.35802554      51.63838795      48.55248768
C       46.85911768      51.51434728      50.47349678
C       51.21375860      49.58565461      49.98289139
C       50.43312385      50.76747192      49.77515695
O       49.53268978      48.23740921      51.16243552
O       48.42111487      51.72716634      48.55173495
O       51.75323651      47.61416313      51.24179654
C       50.70528154      48.50804243      50.83939655
C       48.18199108      51.41379704      49.66947213
O       49.26680476      50.85208877      50.41451548
H       51.36236024      46.90700842      51.84890593
H       53.17014953      48.56447809      49.69913580
H       50.63759162      52.80681189      49.03262201
H       54.05405350      50.30489753      48.24546875
H       52.75904001      52.41117315      47.88721803
H       46.16459664      52.06868094      49.84015650
H       46.50321684      50.37029485      50.64381725
H       47.04376106      51.84383757      51.61562597
