21
Lattice="100.0 0.0 0.0 0.0 100.0 0.0 0.0 0.0 100.0" Properties=species:S:1:pos:R:3 Energy=-406276.35693790397 Energy_pyscf=-406267.9398812817 Energy_pyscf_og=-406275.959496031 pbc="F F F"
C       52.27480980      49.66547334      49.92004787
C       50.92524281      51.93868151      49.40582116
C       52.93077843      50.50908621      49.10232844
C       52.25342523      51.68628298      48.89218243
C       46.83579307      51.23845790      50.97145647
C       50.96244415      49.70951680      50.47845427
C       50.33133556      50.97323438      50.23603338
O       49.27150621      48.64706574      52.18896487
O       48.05314710      50.38020430      49.02543640
O       50.89076003      47.48408107      51.02417819
C       50.27308593      48.61949673      51.29651061
C       47.98893038      50.97266559      50.08467912
O       49.10908315      51.41253153      50.73676305
H       50.39855126      46.88593836      51.61957352
H       52.80160841      48.60087562      50.09317630
H       50.49864621      52.90922845      49.30711444
H       53.89752783      50.08977334      48.85024336
H       52.72320595      52.44485459      48.23167615
H       46.95920360      50.44328078      51.75569981
H       46.99295337      52.20996021      51.57220473
H       45.89840525      51.12348330      50.36908551
