21
Lattice="100.0 0.0 0.0 0.0 100.0 0.0 0.0 0.0 100.0" Properties=species:S:1:pos:R:3 Energy=-406284.96094436577 Energy_pyscf=-406280.1279066242 Energy_pyscf_og=-406284.5804438931 pbc="F F F"
C       52.33120413      49.35767335      49.58750997
C       51.12436726      51.90449819      49.31306910
C       52.96326034      50.33535061      48.87747303
C       52.43609398      51.62644218      48.74690408
C       46.96390787      51.41917645      50.91053944
C       51.09517568      49.61916089      50.22676884
C       50.54552395      50.92431901      50.07961902
O       49.32490701      48.79940407      51.55065574
O       48.16044147      50.39061251      48.89641717
O       51.22988073      47.64795693      51.58267682
C       50.48132598      48.65562333      51.18692443
C       48.11410836      50.88956693      49.96056038
O       49.29791461      51.21878170      50.65206044
H       50.77010990      46.93842873      52.10124143
H       52.76370904      48.29856222      49.74444708
H       50.85499870      52.96043912      49.31880742
H       53.88225816      50.09326918      48.51087855
H       52.88042766      52.36515844      48.04574728
H       46.17119301      51.81996968      50.17643075
H       46.40805159      50.66951656      51.49181915
H       47.21022257      52.13747418      51.70312983
