21
Lattice="100.0 0.0 0.0 0.0 100.0 0.0 0.0 0.0 100.0" Properties=species:S:1:pos:R:3 Energy=-406278.9831323721 Energy_pyscf=-406274.99593314156 Energy_pyscf_og=-406278.58024752967 pbc="F F F"
C       52.45230736      49.85475446      49.86021786
C       50.84315290      51.53660440      48.35557394
C       52.98121759      50.82969444      48.97017430
C       52.20535299      51.65301372      48.24234561
C       46.71177466      51.58322671      49.77634925
C       51.06522308      49.77452708      50.16893271
C       50.30959875      50.69541670      49.31119490
O       49.47634862      48.67589948      51.50611654
O       48.77024940      52.16713731      50.79364994
O       51.51427041      47.93886121      51.64985092
C       50.58706391      48.87076308      51.14278744
C       48.19356786      51.48524316      50.03153361
O       48.91363712      50.54263138      49.27303776
H       50.96962015      47.38345433      52.16756958
H       53.16049080      49.10374812      50.32228469
H       50.09531517      52.26513389      47.97834301
H       54.03810391      50.97448481      48.86353352
H       52.73365415      52.35484608      47.57274970
H       46.42301895      50.74391529      50.39865042
H       46.33160672      52.57691138      50.11476060
H       46.46723385      51.29693202      48.79039065
