21
Lattice="100.0 0.0 0.0 0.0 100.0 0.0 0.0 0.0 100.0" Properties=species:S:1:pos:R:3 Energy=-406271.87954696006 Energy_pyscf=-406268.80816431023 Energy_pyscf_og=-406271.469361706 pbc="F F F"
C       52.37998117      49.75031618      49.72976669
C       51.09128860      52.07059470      49.05489453
C       52.99670955      50.66055652      48.95646632
C       52.33392760      51.74425317      48.56979747
C       46.76047237      51.64817711      50.44842189
C       51.04025130      49.91392676      50.15706740
C       50.44693559      51.18080084      49.90191224
O       49.64485023      49.22841988      51.99281890
O       48.08494054      49.88084726      49.11171507
O       50.35499100      47.51706082      50.74750987
C       50.34533135      48.90577430      51.00666253
C       48.00108321      50.90744243      49.78149357
O       49.16214857      51.50789891      50.41852228
H       49.59562539      47.17740775      51.35455612
H       52.86140854      48.81965819      50.05196184
H       50.59369780      52.90812137      48.56835628
H       54.00368863      50.46525197      48.62475800
H       52.79307912      52.40780695      47.88392169
H       47.19572160      51.86894232      51.38905409
H       46.31494957      52.50347157      49.95439266
H       46.04608116      50.72479901      50.68620088
