21
Lattice="100.0 0.0 0.0 0.0 100.0 0.0 0.0 0.0 100.0" Properties=species:S:1:pos:R:3 Energy=-406275.22008763626 Energy_pyscf=-406272.8436056856 Energy_pyscf_og=-406274.8142779412 pbc="F F F"
C       52.36543548      49.43250107      49.69574551
C       51.12773145      51.90012807      49.26801520
C       53.00201688      50.41513063      49.01395608
C       52.33267325      51.65348411      48.67205000
C       46.97161492      51.38526042      50.84969072
C       51.03277070      49.73425370      50.23741048
C       50.52052189      50.99671902      50.08938395
O       49.18607011      48.67816723      51.60025976
O       48.32992308      50.40872175      49.06304374
O       51.15495186      47.65995860      51.36981806
C       50.30046914      48.69178711      51.07018981
C       48.24731634      50.88088691      50.15187458
O       49.42454658      51.32073327      50.83913335
H       50.69780922      47.00649326      51.94852280
H       52.70078923      48.38752106      49.75340036
H       50.82211534      52.88703536      49.40583526
H       53.78566276      49.93049428      48.48667608
H       52.95320237      52.30222951      48.04116049
H       46.17702841      51.45749287      50.20603542
H       46.66716526      50.59739577      51.62260298
H       47.22174185      52.33076183      51.35529285
