21
Lattice="100.0 0.0 0.0 0.0 100.0 0.0 0.0 0.0 100.0" Properties=species:S:1:pos:R:3 Energy=-406268.6863997134 Energy_pyscf=-406252.279537087 Energy_pyscf_og=-406268.28548112535 pbc="F F F"
C       52.48311179      49.66612162      49.89759042
C       51.02201493      51.96629476      49.57821777
C       52.95086396      50.42136150      48.84531760
C       52.02821305      51.65591696      48.71652800
C       46.92923203      51.63150027      50.76393617
C       51.17113366      49.64888835      50.29584394
C       50.51479511      50.83633604      50.24374948
O       49.45925823      47.97336159      50.89293856
O       48.26676976      51.33885410      48.76672800
O       51.55421674      47.65435900      51.71075507
C       50.63066121      48.45531867      50.96801294
C       48.20316826      51.31664544      49.97561636
O       49.28109008      50.80546062      50.72606704
H       51.06089417      46.90715282      52.08057279
H       52.93785313      48.73781531      49.98212548
H       50.62430405      52.98224636      49.60173401
H       53.83686153      50.37431072      48.15973716
H       52.38056725      52.51952845      48.16205474
H       46.42624940      52.47431217      50.28169834
H       46.26267120      50.79273659      50.54686506
H       46.98802677      51.75127361      51.85193236
