21
Lattice="100.0 0.0 0.0 0.0 100.0 0.0 0.0 0.0 100.0" Properties=species:S:1:pos:R:3 Energy=-406281.68861197395 Energy_pyscf=-406279.7135919201 Energy_pyscf_og=-406281.2736112841 pbc="F F F"
C       52.24977215      49.50895700      49.95011384
C       51.08407070      51.99247785      49.42584825
C       52.95934465      50.45332218      49.12706056
C       52.27583256      51.63178167      48.75946008
C       46.91537768      51.07078811      51.07846957
C       50.86215846      49.72358210      50.38058325
C       50.36854193      51.02580298      50.18785670
O       49.11899519      48.86505952      51.74972358
O       47.99786600      50.78358108      49.05527518
O       50.90018026      47.57125688      51.28387485
C       50.19351457      48.74035832      51.26874899
C       48.12891833      51.10609156      50.21820568
O       49.23865792      51.42229741      50.89935312
H       50.44206181      46.72084347      51.65356035
H       52.77942872      48.60456263      50.31137721
H       50.44000333      52.91536921      49.20316691
H       53.93422962      50.15877927      48.68354563
H       52.76699088      52.32807598      48.14084704
H       46.85664631      50.27480580      51.82061425
H       46.66693206      51.99730640      51.63356276
H       46.06517016      51.03604464      50.33472302
