9
Lattice="100.0 0.0 0.0 0.0 100.0 0.0 0.0 0.0 100.0" Properties=species:S:1:pos:R:3 Energy=-167310.1360946666 Energy_pyscf=-167312.6559017199 Energy_pyscf_og=-167309.96508344333 pbc="F F F"
C       50.09129071      49.04013989      50.71734726
C       49.83069866      50.43883987      50.20230286
C       50.57486864      50.64873754      48.88610504
O       51.17460438      51.65326146      48.55493156
O       50.56082947      48.87946131      51.82686301
H       49.78862774      48.07554228      50.14004247
H       48.68862266      50.44214077      50.03921842
H       50.19838159      51.15576597      50.92237968
H       50.66958958      49.73603870      48.21282783
