9
Lattice="100.0 0.0 0.0 0.0 100.0 0.0 0.0 0.0 100.0" Properties=species:S:1:pos:R:3 Energy=-167311.20629352165 Energy_pyscf=-167311.0340875329 Energy_pyscf_og=-167311.02776120589 pbc="F F F"
C       50.33071743      49.70749789      51.41468209
C       49.54094611      50.13709202      50.15772965
C       50.45877705      50.57071628      49.09426428
O       51.21278656      51.54335676      49.21355785
O       50.56448253      48.55340071      51.70645253
H       50.72468416      50.60194958      51.95509471
H       48.76018223      49.37121509      49.82358090
H       49.08235942      50.99857264      50.65250190
H       50.46230921      49.82052105      48.26633178
