9
Lattice="100.0 0.0 0.0 0.0 100.0 0.0 0.0 0.0 100.0" Properties=species:S:1:pos:R:3 Energy=-167311.20264015903 Energy_pyscf=-167310.82296188376 Energy_pyscf_og=-167311.0304452802 pbc="F F F"
C       50.01807206      49.04058002      50.83696458
C       49.96263061      50.45432203      50.20915849
C       50.46492261      50.73280678      48.83146006
O       50.52423119      51.87672089      48.40775237
O       50.24090795      48.83497298      52.00486715
H       49.79160570      48.18961756      50.01442100
H       48.88166031      50.72130098      50.22115410
H       50.41305431      51.03645386      51.02675163
H       50.94645572      49.90816368      48.26593154
