9
Lattice="100.0 0.0 0.0 0.0 100.0 0.0 0.0 0.0 100.0" Properties=species:S:1:pos:R:3 Energy=-167308.6366791932 Energy_pyscf=-167308.47628475464 Energy_pyscf_og=-167308.4698742131 pbc="F F F"
C       50.43992725      49.44670698      51.24324701
C       49.43656857      50.10376849      50.22317608
C       49.99106537      51.04780288      49.19323061
O       51.16191581      51.03988811      48.91087235
O       50.31901981      48.31498817      51.55342369
H       51.46525908      50.00951697      51.39780552
H       48.77639875      49.39723793      49.68958153
H       48.66318352      50.73477893      50.70776536
H       49.20301092      51.59193047      48.52803523
