9
Lattice="100.0 0.0 0.0 0.0 100.0 0.0 0.0 0.0 100.0" Properties=species:S:1:pos:R:3 Energy=-167308.85357847105 Energy_pyscf=-167308.6876429258 Energy_pyscf_og=-167308.6870171196 pbc="F F F"
C       49.62775289      49.49097897      50.96241013
C       49.38690075      49.77395383      49.56518878
C       50.62293986      50.42907105      49.01643164
O       50.65070886      51.32559779      48.22621146
O       50.27281554      48.50190612      51.37031108
H       49.40367890      50.29942198      51.68498491
H       49.37934168      48.92648050      48.89809520
H       48.45069413      50.40833560      49.49404651
H       51.64290528      49.95379899      49.21584649
