9
Lattice="100.0 0.0 0.0 0.0 100.0 0.0 0.0 0.0 100.0" Properties=species:S:1:pos:R:3 Energy=-167303.5669424434 Energy_pyscf=-167299.11568184142 Energy_pyscf_og=-167303.4021137021 pbc="F F F"
C       50.06985846      49.20975242      50.73893560
C       49.58148212      49.71110071      49.33915799
C       50.69164877      50.77149772      49.01774885
O       51.52367604      50.78920545      48.20959979
O       51.11009113      48.53701245      50.79769855
H       49.49886124      49.56704807      51.74271311
H       49.78807434      48.75152980      48.62023104
H       48.60879574      50.05181376      49.42280694
H       50.57601948      51.58188172      49.82875152
