9
Lattice="100.0 0.0 0.0 0.0 100.0 0.0 0.0 0.0 100.0" Properties=species:S:1:pos:R:3 Energy=-167305.21494588762 Energy_pyscf=-167305.09095232535 Energy_pyscf_og=-167305.04433854375 pbc="F F F"
C       50.35121056      48.57732377      50.32822546
C       49.44116725      49.80076684      50.03705123
C       50.50569831      50.82649475      49.30908602
O       51.54166107      50.43700753      48.84648606
O       50.77551488      48.14136485      51.35568767
H       50.58004084      48.06868662      49.39845623
H       48.80527719      49.48378915      49.21657666
H       48.91346638      50.23072805      50.80435945
H       50.10310751      51.93029679      49.31871343
