9
Lattice="100.0 0.0 0.0 0.0 100.0 0.0 0.0 0.0 100.0" Properties=species:S:1:pos:R:3 Energy=-167307.1482276212 Energy_pyscf=-167307.02219863195 Energy_pyscf_og=-167306.985104434 pbc="F F F"
C       50.02336980      49.32958657      50.99101947
C       49.52397699      49.83665728      49.66895283
C       50.49470300      51.07463484      49.15442022
O       51.24188754      50.93218508      48.26729222
O       50.60271116      48.27129983      51.07560143
H       49.72736920      49.94653568      51.85856268
H       49.70091268      49.01233525      48.92365417
H       48.50660344      50.15991182      49.81221668
H       50.28616246      51.91058123      49.91126606
