9
Lattice="100.0 0.0 0.0 0.0 100.0 0.0 0.0 0.0 100.0" Properties=species:S:1:pos:R:3 Energy=-167311.54399750038 Energy_pyscf=-167310.99578599786 Energy_pyscf_og=-167311.3789728538 pbc="F F F"
C       49.58334931      49.15359941      50.84052866
C       49.42208057      50.13152863      49.70701425
C       50.64510892      51.01948547      49.48678311
O       50.67455307      51.80849670      48.56352328
O       50.51566522      49.06699989      51.60178564
H       48.66863717      48.61962420      50.86457165
H       49.26076389      49.47643520      48.79743072
H       48.50769666      50.78477709      49.75522247
H       51.40284041      51.03804219      50.27094822
