9
Lattice="100.0 0.0 0.0 0.0 100.0 0.0 0.0 0.0 100.0" Properties=species:S:1:pos:R:3 Energy=-167296.60190177461 Energy_pyscf=-167294.4087512186 Energy_pyscf_og=-167296.42802203583 pbc="F F F"
C       49.91596493      48.86002585      50.95304262
C       49.76105068      49.87853918      49.77250867
C       50.72769632      51.05891105      49.62571893
O       51.45992563      51.11900909      48.68460010
O       51.03403615      48.58114742      51.45877649
H       48.98777347      48.29074121      51.16544065
H       49.31606234      49.29417415      48.83524654
H       48.58056756      50.27596305      50.18288101
H       50.82046637      51.82949690      50.43623575
