9
Lattice="100.0 0.0 0.0 0.0 100.0 0.0 0.0 0.0 100.0" Properties=species:S:1:pos:R:3 Energy=-167305.04186509186 Energy_pyscf=-167304.88279323027 Energy_pyscf_og=-167304.87883243238 pbc="F F F"
C       50.08170379      49.05572213      50.85980398
C       49.75955415      50.41288078      50.18920481
C       50.54736485      50.70755062      48.94761787
O       51.14310486      51.74538101      48.81960953
O       50.77275263      49.01809313      51.82206693
H       49.75826956      48.18964456      50.25110800
H       48.65124661      50.54886911      49.90339211
H       50.08026284      51.05470490      50.89949411
H       50.48120453      50.06809087      48.11249873
