9
Lattice="100.0 0.0 0.0 0.0 100.0 0.0 0.0 0.0 100.0" Properties=species:S:1:pos:R:3 Energy=-167303.2899594277 Energy_pyscf=-167303.1017546 Energy_pyscf_og=-167303.11295594045 pbc="F F F"
C       50.01400175      49.25302648      51.11424524
C       49.61147765      49.80139584      49.64619324
C       50.46647557      50.97173584      49.12702413
O       51.27987672      50.99361077      48.25871559
O       50.81514636      48.30564213      51.26174183
H       49.59126704      49.72893836      52.08685714
H       49.43946382      49.16168448      48.78281474
H       48.63985562      50.31278227      49.69223792
H       50.25957179      51.97984238      49.73309215
