9
Lattice="100.0 0.0 0.0 0.0 100.0 0.0 0.0 0.0 100.0" Properties=species:S:1:pos:R:3 Energy=-167305.48408339336 Energy_pyscf=-167303.19207921467 Energy_pyscf_og=-167305.30749169944 pbc="F F F"
C       50.35985477      48.72036104      50.94704971
C       49.71461512      49.84083394      50.29963362
C       50.34871796      50.93636135      49.38972587
O       50.57800247      50.91758600      48.16124688
O       49.94775752      48.32846610      52.02962868
H       51.18929013      48.14384859      50.34589675
H       48.95231846      49.35776055      49.62736730
H       48.96206455      50.29126839      50.95028143
H       50.28053586      51.87671848      49.98363617
