9
Lattice="100.0 0.0 0.0 0.0 100.0 0.0 0.0 0.0 100.0" Properties=species:S:1:pos:R:3 Energy=-167307.55260597818 Energy_pyscf=-167307.38627261063 Energy_pyscf_og=-167307.3877577386 pbc="F F F"
C       50.07496514      49.00310102      50.77828267
C       49.83655450      50.33003921      50.09671475
C       50.58543446      50.62875116      48.83643153
O       51.22469594      51.69136785      48.77374612
O       50.75695685      48.96049404      51.71859780
H       49.53844428      48.16432528      50.31943505
H       48.72722352      50.35543113      50.07004310
H       50.10562769      51.13513029      50.80674400
H       50.74300035      49.80092560      48.09412021
