9
Lattice="100.0 0.0 0.0 0.0 100.0 0.0 0.0 0.0 100.0" Properties=species:S:1:pos:R:3 Energy=-167305.49159558283 Energy_pyscf=-167305.30629785702 Energy_pyscf_og=-167305.31318242924 pbc="F F F"
C       49.86986567      48.96736430      50.50986573
C       49.48701940      50.23884449      49.93556330
C       50.50085994      50.80205064      48.93939666
O       50.32510636      51.63618848      48.09666960
O       50.08803333      48.83507465      51.71883994
H       50.08992133      48.02811561      49.85827600
H       48.49379611      50.04410259      49.40560401
H       49.42241231      51.00947296      50.73836746
H       51.50219522      50.04954930      48.95995321
