9
Lattice="100.0 0.0 0.0 0.0 100.0 0.0 0.0 0.0 100.0" Properties=species:S:1:pos:R:3 Energy=-167307.27940584184 Energy_pyscf=-167307.11557514506 Energy_pyscf_og=-167307.11393424834 pbc="F F F"
C       49.89587253      49.15773304      50.61142425
C       49.52939044      50.48386530      50.07824114
C       50.58550607      51.19174944      49.23587055
O       50.49022294      51.64218613      48.11774084
O       49.86035920      48.99603921      51.80623778
H       50.00156064      48.25454522      49.91329459
H       48.58496266      50.38811111      49.40938432
H       49.35131879      51.38659587      50.76814037
H       51.46677191      51.41717266      49.89072365
