9
Lattice="100.0 0.0 0.0 0.0 100.0 0.0 0.0 0.0 100.0" Properties=species:S:1:pos:R:3 Energy=-167303.05480252387 Energy_pyscf=-167302.8847801399 Energy_pyscf_og=-167302.88386947135 pbc="F F F"
C       50.45811305      49.61389079      51.13195771
C       49.38942549      50.44199263      50.51748167
C       49.94281041      51.07734195      49.16718403
O       51.17206855      51.34061918      49.04575344
O       50.31795768      48.58573340      51.85733286
H       51.40597591      50.26738801      51.17988524
H       48.55509403      49.75374228      50.31381923
H       48.96826312      51.20766672      51.33549176
H       49.20517960      51.26181066      48.34730521
