9
Lattice="100.0 0.0 0.0 0.0 100.0 0.0 0.0 0.0 100.0" Properties=species:S:1:pos:R:3 Energy=-167303.24961847137 Energy_pyscf=-167303.09031870877 Energy_pyscf_og=-167303.08900358982 pbc="F F F"
C       49.98456319      49.42307363      51.01239099
C       49.68578149      49.78027467      49.57018194
C       50.49844554      50.99791237      49.20014579
O       50.97954018      51.13803837      48.10214992
O       50.69900781      48.46791089      51.23922375
H       49.49037463      50.04965036      51.76912639
H       49.51314129      48.98271267      48.83384569
H       48.60853708      50.07599531      49.68968900
H       50.65352995      51.60260367      50.24091888
