9
Lattice="100.0 0.0 0.0 0.0 100.0 0.0 0.0 0.0 100.0" Properties=species:S:1:pos:R:3 Energy=-167312.30360791454 Energy_pyscf=-167312.1256475237 Energy_pyscf_og=-167312.12939589098 pbc="F F F"
C       49.48396902      49.00122167      50.94050184
C       49.38754998      49.67393873      49.60403609
C       50.59464357      50.34680483      49.10729573
O       50.59542943      51.33465444      48.39140926
O       50.42320191      48.61883080      51.59905567
H       48.43489810      48.94099876      51.30751950
H       49.17727276      48.84623358      48.92368759
H       48.42412010      50.29351693      49.67518681
H       51.59338398      49.97445109      49.55291166
