9
Lattice="100.0 0.0 0.0 0.0 100.0 0.0 0.0 0.0 100.0" Properties=species:S:1:pos:R:3 Energy=-167301.70659197308 Energy_pyscf=-167299.69325176213 Energy_pyscf_og=-167301.53228421026 pbc="F F F"
C       50.09298195      49.30120315      51.15676590
C       49.45747997      50.48063059      50.52974988
C       50.42978211      50.90582643      49.33614083
O       51.48666657      51.57155506      49.37711717
O       51.08528110      49.19115626      51.75998517
H       49.44619537      48.41832065      50.70179998
H       48.45587541      50.39537943      50.11655280
H       49.57847866      51.48703806      51.05582311
H       50.10868857      50.65585088      48.31889023
