9
Lattice="100.0 0.0 0.0 0.0 100.0 0.0 0.0 0.0 100.0" Properties=species:S:1:pos:R:3 Energy=-167293.40874561344 Energy_pyscf=-167293.24407490797 Energy_pyscf_og=-167293.24235307935 pbc="F F F"
C       49.86293928      49.13261892      50.55764345
C       49.54914577      50.47509146      50.04980035
C       50.48963436      51.29073568      49.20396707
O       50.58586735      51.64754749      48.01327856
O       49.77238339      48.92955345      51.82484602
H       50.01486639      48.22772112      50.05074532
H       48.66900042      50.50561903      49.39024980
H       49.43888694      51.20448356      50.93152149
H       51.34417135      51.50404808      49.81006430
