9
Lattice="100.0 0.0 0.0 0.0 100.0 0.0 0.0 0.0 100.0" Properties=species:S:1:pos:R:3 Energy=-167298.3069922005 Energy_pyscf=-167298.11157081398 Energy_pyscf_og=-167298.12829591607 pbc="F F F"
C       50.07741967      49.29116757      51.00218676
C       49.60088225      49.79165467      49.68662249
C       50.47750397      51.02368329      49.14870815
O       51.14236594      50.96151440      48.18273495
O       50.81989073      48.34422902      51.29008716
H       49.44301520      49.74265373      51.76016063
H       49.64060833      49.05248417      48.86068077
H       48.48707170      50.41332300      49.88164175
H       50.41410141      51.86235442      49.85430395
