9
Lattice="100.0 0.0 0.0 0.0 100.0 0.0 0.0 0.0 100.0" Properties=species:S:1:pos:R:3 Energy=-167302.86052643784 Energy_pyscf=-167302.69537778976 Energy_pyscf_og=-167302.6931735342 pbc="F F F"
C       50.35605756      49.20005003      50.68834360
C       49.67839712      50.46689607      50.40187718
C       49.94343303      50.91753071      49.05404974
O       51.10089023      50.94512800      48.70797174
O       50.04129811      48.29451246      51.43176771
H       51.31493804      49.23800389      50.02886263
H       48.68710619      50.58435010      50.60410901
H       50.19308448      51.17893073      51.00741594
H       48.99799971      51.19679213      48.54191577
