9
Lattice="100.0 0.0 0.0 0.0 100.0 0.0 0.0 0.0 100.0" Properties=species:S:1:pos:R:3 Energy=-167306.5394665031 Energy_pyscf=-167306.1300644898 Energy_pyscf_og=-167306.37363172224 pbc="F F F"
C       49.65399417      49.05374581      50.94782938
C       49.43960829      49.94302787      49.76995089
C       50.72053752      50.79273268      49.47873223
O       50.66325636      51.48065916      48.43926577
O       50.66177631      48.80495007      51.52138586
H       48.64215638      48.55670039      51.19246431
H       49.34712652      49.20246016      48.92045708
H       48.61629534      50.73093081      49.68180431
H       51.48283232      50.84883411      50.21288137
