9
Lattice="100.0 0.0 0.0 0.0 100.0 0.0 0.0 0.0 100.0" Properties=species:S:1:pos:R:3 Energy=-167307.63070508945 Energy_pyscf=-167307.42822350055 Energy_pyscf_og=-167307.4494768895 pbc="F F F"
C       50.53115663      49.24571813      50.85256137
C       49.78169193      50.44063728      50.38259009
C       50.18531059      50.86530701      48.99434801
O       51.27388299      51.30860453      48.74900852
O       50.53067356      48.66483957      51.90742435
H       51.16033047      48.86843684      49.99322685
H       48.76001361      50.18807847      50.33197432
H       49.85861294      51.15639471      51.12083807
H       49.38802718      50.70669195      48.20191194
