9
Lattice="100.0 0.0 0.0 0.0 100.0 0.0 0.0 0.0 100.0" Properties=species:S:1:pos:R:3 Energy=-167313.53618455105 Energy_pyscf=-167312.92201244598 Energy_pyscf_og=-167313.36273062593 pbc="F F F"
C       50.48772720      49.73685052      51.44355763
C       49.62393939      50.16455150      50.32335663
C       50.36411901      50.63496238      49.06862396
O       51.24054821      51.52294295      49.17821246
O       50.37227654      48.63032446      51.92709601
H       51.32438536      50.41872203      51.74325505
H       48.79592711      49.49111764      50.18308351
H       49.19561012      51.14143923      50.73239738
H       50.03338622      50.22259552      48.04298616
