9
Lattice="100.0 0.0 0.0 0.0 100.0 0.0 0.0 0.0 100.0" Properties=species:S:1:pos:R:3 Energy=-167304.7078794525 Energy_pyscf=-167304.54334184094 Energy_pyscf_og=-167304.54020715566 pbc="F F F"
C       50.08997887      48.99137823      50.85401263
C       49.91684351      50.39715008      50.24441343
C       50.62591671      50.76674531      48.96627222
O       50.89702349      51.88210297      48.71896636
O       50.67844940      48.85712629      51.86461828
H       49.62427556      48.11116159      50.17024494
H       48.82764738      50.55373848      49.89022956
H       50.09541722      51.32809689      50.87070084
H       50.50738407      49.91593621      48.22038632
