9
Lattice="100.0 0.0 0.0 0.0 100.0 0.0 0.0 0.0 100.0" Properties=species:S:1:pos:R:3 Energy=-167298.8044717109 Energy_pyscf=-167298.62577708822 Energy_pyscf_og=-167298.63145768608 pbc="F F F"
C       50.11479642      48.93638470      50.44319982
C       49.78343665      50.35992444      49.98890940
C       50.38918107      51.18538754      48.95582678
O       51.46994189      51.18784622      48.50332132
O       50.55730993      48.85178357      51.58663603
H       50.19821519      48.09662680      49.77415076
H       48.65275812      50.20839118      49.91411982
H       49.77740050      50.91428621      50.93068606
H       49.53429339      51.94226677      48.69031590
