9
Lattice="100.0 0.0 0.0 0.0 100.0 0.0 0.0 0.0 100.0" Properties=species:S:1:pos:R:3 Energy=-167302.11211868742 Energy_pyscf=-167301.9343375669 Energy_pyscf_og=-167301.93033886925 pbc="F F F"
C       50.36254561      48.81689078      50.48200070
C       49.77192352      50.15856066      50.24236334
C       50.24162328      50.90891768      49.03871025
O       51.40544192      51.16883972      48.68802254
O       50.60302019      48.35244484      51.54809510
H       50.32371207      48.04549091      49.58524545
H       48.67452103      49.91569678      50.30604549
H       50.12928196      51.00805546      51.05321056
H       49.40135181      51.46508141      48.54458255
