9
Lattice="100.0 0.0 0.0 0.0 100.0 0.0 0.0 0.0 100.0" Properties=species:S:1:pos:R:3 Energy=-167305.59781954574 Energy_pyscf=-167305.4173079532 Energy_pyscf_og=-167305.42728211766 pbc="F F F"
C       50.43462521      49.78413907      51.54139067
C       49.60038810      50.29861709      50.38460598
C       50.30615988      50.63835699      49.06100311
O       51.29772628      51.37163427      49.09128956
O       50.47663161      48.54893316      51.77109741
H       51.30452983      50.47146666      51.87334119
H       48.89193427      49.50148254      50.03968944
H       49.08184296      51.17516254      50.80825969
H       50.03102186      50.18042421      48.06336853
