9
Lattice="100.0 0.0 0.0 0.0 100.0 0.0 0.0 0.0 100.0" Properties=species:S:1:pos:R:3 Energy=-167302.3384952459 Energy_pyscf=-167298.64291545062 Energy_pyscf_og=-167302.16686123522 pbc="F F F"
C       50.01554748      49.36739955      50.98865252
C       49.86623151      49.77887903      49.56037059
C       50.70788562      51.08554072      49.28338018
O       51.29151569      51.29121170      48.21058761
O       50.60834010      48.37412280      51.36895613
H       49.54048019      49.94369686      51.79774383
H       50.50585470      49.02209059      48.96942399
H       48.85239974      49.72869965      49.32464304
H       51.27142068      51.60362575      50.07581931
