9
Lattice="100.0 0.0 0.0 0.0 100.0 0.0 0.0 0.0 100.0" Properties=species:S:1:pos:R:3 Energy=-167302.64525333952 Energy_pyscf=-167302.47598676264 Energy_pyscf_og=-167302.4775350871 pbc="F F F"
C       49.84799308      48.81594557      50.78303672
C       49.45743667      49.59455652      49.49807173
C       50.45210787      50.68344298      49.22932468
O       51.46093273      50.48474903      48.58667178
O       50.91831836      48.22712728      50.61466072
H       49.27210056      48.70105752      51.73684087
H       49.45866077      48.72922726      48.79577285
H       48.53581615      50.09378007      49.49667864
H       50.07849631      51.80653882      49.51078147
