9
Lattice="100.0 0.0 0.0 0.0 100.0 0.0 0.0 0.0 100.0" Properties=species:S:1:pos:R:3 Energy=-167306.25656281004 Energy_pyscf=-167306.02232929974 Energy_pyscf_og=-167306.0883857628 pbc="F F F"
C       50.06723977      49.04961723      50.80315527
C       49.83511098      50.39489776      50.24946720
C       50.56076302      50.56944398      48.86104997
O       51.02285912      51.63230499      48.51406467
O       50.74097431      48.79428016      51.84772085
H       49.65839033      48.20966481      50.11814208
H       48.83374729      50.56733685      49.81798763
H       50.08405682      51.11014860      51.06810661
H       50.75827557      49.74330780      48.22445719
