9
Lattice="100.0 0.0 0.0 0.0 100.0 0.0 0.0 0.0 100.0" Properties=species:S:1:pos:R:3 Energy=-167305.91854341494 Energy_pyscf=-167305.74338563503 Energy_pyscf_og=-167305.74808921118 pbc="F F F"
C       50.26433337      49.71275829      51.37888104
C       49.38878948      50.17155141      50.23453090
C       50.48377097      50.51953056      49.10942837
O       51.28894707      51.40811784      49.23488507
O       50.62446959      48.59798420      51.53761950
H       50.82762363      50.55947225      51.97180525
H       48.79315033      49.28297752      49.94587707
H       48.86528366      51.16954239      50.66227021
H       50.59737798      49.87232352      48.22242320
