9
Lattice="100.0 0.0 0.0 0.0 100.0 0.0 0.0 0.0 100.0" Properties=species:S:1:pos:R:3 Energy=-167298.5207517127 Energy_pyscf=-167298.34090296703 Energy_pyscf_og=-167298.34597482605 pbc="F F F"
C       49.99284132      49.13628907      51.00365068
C       49.93203179      49.54168420      49.56296963
C       50.20352055      51.05936521      49.14342608
O       51.03001842      51.17475763      48.23751994
O       50.44806674      48.07120584      51.43210643
H       49.70662705      49.90600563      51.82042252
H       50.59947824      49.11016744      48.98578389
H       48.93707930      49.23281855      49.17556410
H       49.59776661      52.01262105      49.35505873
