9
Lattice="100.0 0.0 0.0 0.0 100.0 0.0 0.0 0.0 100.0" Properties=species:S:1:pos:R:3 Energy=-167307.38395061134 Energy_pyscf=-167307.19991455323 Energy_pyscf_og=-167307.20286462267 pbc="F F F"
C       50.30331265      48.66076028      50.89207456
C       49.61026382      49.87650249      50.22585621
C       50.30978572      50.93430763      49.36528423
O       50.61908680      50.91335085      48.16650234
O       49.95376234      48.34047307      51.99898348
H       51.29110343      48.17393715      50.41841776
H       48.87195590      49.34098057      49.60059417
H       49.00489475      50.23107334      51.11501010
H       50.37596619      51.93244597      49.88947363
