9
Lattice="100.0 0.0 0.0 0.0 100.0 0.0 0.0 0.0 100.0" Properties=species:S:1:pos:R:3 Energy=-167298.22520362277 Energy_pyscf=-167292.6381142572 Energy_pyscf_og=-167298.04636120965 pbc="F F F"
C       50.18354282      49.17094112      51.12483085
C       49.83078214      49.77644758      49.72824964
C       50.53742086      51.05406728      49.31129221
O       51.25292953      50.86980987      48.32702883
O       50.52087940      48.01314085      51.20254716
H       49.47573190      49.67051910      51.81332814
H       49.90080157      48.92390104      49.11651925
H       48.82959297      50.13527477      49.82999192
H       50.30436951      52.04131240      49.85671868
