9
Lattice="100.0 0.0 0.0 0.0 100.0 0.0 0.0 0.0 100.0" Properties=species:S:1:pos:R:3 Energy=-167309.18727547175 Energy_pyscf=-167309.00274675203 Energy_pyscf_og=-167309.01028878926 pbc="F F F"
C       49.70141539      49.34647102      50.71523712
C       49.34597694      50.52912736      49.85761954
C       50.70437302      51.34342873      49.53805634
O       50.98858619      51.85591282      48.44705672
O       50.45869420      49.52942870      51.69118148
H       49.48064388      48.27464062      50.28843557
H       48.65423531      50.26661450      49.09936291
H       48.77619107      51.25256569      50.56478792
H       51.42909549      51.36950144      50.42107830
