9
Lattice="100.0 0.0 0.0 0.0 100.0 0.0 0.0 0.0 100.0" Properties=species:S:1:pos:R:3 Energy=-167308.25748635255 Energy_pyscf=-167308.06398440237 Energy_pyscf_og=-167308.0815111465 pbc="F F F"
C       50.49010072      49.59055093      51.40546987
C       49.62060607      50.21897049      50.28659347
C       50.32509307      50.71561116      49.05618110
O       51.25121857      51.52909552      49.16629405
O       50.44104584      48.56249731      52.00207955
H       51.24727885      50.43686278      51.71736658
H       48.84770144      49.51209530      50.17936206
H       49.18159916      51.20734949      50.68743941
H       50.01533911      50.18823572      48.09222042
