9
Lattice="100.0 0.0 0.0 0.0 100.0 0.0 0.0 0.0 100.0" Properties=species:S:1:pos:R:3 Energy=-167301.16676704652 Energy_pyscf=-167301.10159454923 Energy_pyscf_og=-167301.0018585627 pbc="F F F"
C       49.80243192      49.14645248      50.64262613
C       49.58182684      50.50784215      50.10431061
C       50.54998373      51.33174638      49.19018830
O       50.37917568      51.75267827      48.12169983
O       49.71606907      48.88931957      51.88027583
H       50.00068811      48.23041745      50.04424844
H       48.79363541      50.39166480      49.33045368
H       49.38311559      51.22710761      50.84274222
H       51.53377913      51.43542806      49.68933912
