9
Lattice="100.0 0.0 0.0 0.0 100.0 0.0 0.0 0.0 100.0" Properties=species:S:1:pos:R:3 Energy=-167304.87514895457 Energy_pyscf=-167304.69600819415 Energy_pyscf_og=-167304.70292471428 pbc="F F F"
C       49.89500996      49.01316085      50.60376585
C       49.54175957      50.23468530      49.92012938
C       50.56536527      50.63527959      48.85694521
O       50.54438577      51.77523594      48.41583155
O       49.89228700      48.73398974      51.81421785
H       50.33499654      48.24960458      49.92908987
H       48.48658005      49.92674686      49.57272476
H       49.26958456      51.09526089      50.55720387
H       51.28251954      49.97093611      48.53666009
