9
Lattice="100.0 0.0 0.0 0.0 100.0 0.0 0.0 0.0 100.0" Properties=species:S:1:pos:R:3 Energy=-167313.6316204872 Energy_pyscf=-167313.46610801847 Energy_pyscf_og=-167313.4628603763 pbc="F F F"
C       49.82059403      49.16729898      50.61151084
C       49.42808017      50.54138484      50.00432509
C       50.62331333      51.21599790      49.22665207
O       50.57935322      51.60964870      48.09147540
O       50.08040878      49.04634506      51.83211749
H       49.91787152      48.25820097      49.94423873
H       48.58778817      50.45578377      49.33913414
H       49.26335710      51.15287256      50.87259978
H       51.46833174      51.43651528      49.92840774
