9
Lattice="100.0 0.0 0.0 0.0 100.0 0.0 0.0 0.0 100.0" Properties=species:S:1:pos:R:3 Energy=-167312.46138387156 Energy_pyscf=-167311.98866332122 Energy_pyscf_og=-167312.28959407157 pbc="F F F"
C       50.07996974      49.31115544      51.04082333
C       49.94264961      49.75823800      49.57577070
C       50.80458272      50.97266633      49.26370916
O       51.28514827      51.22407063      48.15803045
O       50.84572573      48.48189812      51.37744818
H       49.33798258      49.80906345      51.75918495
H       50.32401657      48.86892881      48.96051441
H       48.92799509      50.11905789      49.30989545
H       51.09576134      51.65305995      50.14099689
