9
Lattice="100.0 0.0 0.0 0.0 100.0 0.0 0.0 0.0 100.0" Properties=species:S:1:pos:R:3 Energy=-167307.49181639196 Energy_pyscf=-167307.36442341222 Energy_pyscf_og=-167307.32515038858 pbc="F F F"
C       50.21640645      49.02082890      50.47375160
C       49.53660386      50.27162081      50.01860801
C       50.36145358      51.17697709      49.07611253
O       51.42378207      50.98947499      48.54236647
O       51.04204293      49.05283475      51.33769595
H       49.96933361      48.06958952      50.01318701
H       48.61613519      50.21668318      49.46290447
H       49.60695906      50.77237640      50.96041839
H       49.73162801      52.08061885      48.84647378
