9
Lattice="100.0 0.0 0.0 0.0 100.0 0.0 0.0 0.0 100.0" Properties=species:S:1:pos:R:3 Energy=-167294.9320235697 Energy_pyscf=-167294.74708866593 Energy_pyscf_og=-167294.75339517402 pbc="F F F"
C       50.36487196      48.55794913      50.89680952
C       49.56868025      49.81993096      50.34945518
C       50.25434583      51.01968709      49.29010005
O       50.84534987      50.74792916      48.24276326
O       49.84594655      48.13228672      51.89511188
H       51.25369970      48.25956119      50.42013949
H       48.84586685      49.48916291      49.66378664
H       49.21201869      50.29942035      51.26584007
H       50.11763532      52.10518892      49.69011543
