9
Lattice="100.0 0.0 0.0 0.0 100.0 0.0 0.0 0.0 100.0" Properties=species:S:1:pos:R:3 Energy=-167302.2369852176 Energy_pyscf=-167302.061576751 Energy_pyscf_og=-167302.05855263828 pbc="F F F"
C       50.45594380      49.46099568      51.13120546
C       49.32940675      50.14556460      50.18351010
C       49.97214573      50.97876911      49.27563233
O       51.17276613      50.92102953      48.88514153
O       50.34208389      48.48179406      51.81171673
H       51.35018670      49.99523172      51.03247623
H       48.93115265      49.35196237      49.58930555
H       48.47096095      50.60320637      50.78689910
H       49.39530546      51.77490373      48.71820590
