9
Lattice="100.0 0.0 0.0 0.0 100.0 0.0 0.0 0.0 100.0" Properties=species:S:1:pos:R:3 Energy=-167306.65196295595 Energy_pyscf=-167306.48435636415 Energy_pyscf_og=-167306.48186749173 pbc="F F F"
C       49.77796678      49.10247188      50.88732276
C       49.43342894      50.17268191      49.82178791
C       50.74627211      50.47066330      49.11652136
O       51.04589725      51.57371107      48.77661125
O       50.91943923      48.90230593      51.16529568
H       48.90111178      48.56841628      51.24458637
H       48.56915503      49.91833307      49.11388504
H       49.06004896      51.13983274      50.28389765
H       51.51745952      49.56721243      48.72326175
