9
Lattice="100.0 0.0 0.0 0.0 100.0 0.0 0.0 0.0 100.0" Properties=species:S:1:pos:R:3 Energy=-167312.0371571082 Energy_pyscf=-167309.10060871445 Energy_pyscf_og=-167311.86045655556 pbc="F F F"
C       49.92650240      48.85693354      50.75777470
C       49.45047841      49.57766819      49.44690643
C       50.44351255      50.65286127      49.11949066
O       51.40103065      50.65736589      48.41876044
O       50.83332041      48.03580752      50.82825891
H       49.33992674      48.99582111      51.66006684
H       49.56699109      48.71759742      48.69841037
H       48.44387482      49.99995822      49.55474197
H       50.12774966      51.62525996      49.75100930
