9
Lattice="100.0 0.0 0.0 0.0 100.0 0.0 0.0 0.0 100.0" Properties=species:S:1:pos:R:3 Energy=-167307.01237610725 Energy_pyscf=-167306.14756389963 Energy_pyscf_og=-167306.85125664755 pbc="F F F"
C       50.18912020      49.02403525      50.45893795
C       49.65976192      50.30899180      50.04876215
C       50.31512522      51.20695652      49.09271158
O       51.33201610      50.87703968      48.55677746
O       50.88823317      48.98790913      51.43753679
H       50.08659775      48.12613777      49.78948849
H       48.67791891      50.11667457      49.64064010
H       49.58625522      50.92207438      50.99310890
H       49.75453416      52.08263046      48.71511057
