9
Lattice="100.0 0.0 0.0 0.0 100.0 0.0 0.0 0.0 100.0" Properties=species:S:1:pos:R:3 Energy=-167306.73488199638 Energy_pyscf=-167306.5671536884 Energy_pyscf_og=-167306.5673524096 pbc="F F F"
C       49.59808572      48.86052169      50.96826138
C       49.37561538      49.85050691      49.68076479
C       50.59282232      50.43707947      48.89696324
O       50.61353377      51.51517322      48.40979203
O       50.55557880      48.38766452      51.51014208
H       48.51420967      48.66641821      51.36121872
H       48.92642493      49.06999857      48.96538539
H       48.58493987      50.64527172      49.94853247
H       51.35068291      49.55227052      48.79939741
