9
Lattice="100.0 0.0 0.0 0.0 100.0 0.0 0.0 0.0 100.0" Properties=species:S:1:pos:R:3 Energy=-167308.87961227287 Energy_pyscf=-167306.31168781733 Energy_pyscf_og=-167308.70414656468 pbc="F F F"
C       50.48511564      49.76337619      51.45513731
C       49.54466178      50.36347451      50.43346897
C       50.37479077      50.58449701      49.20302411
O       51.33040563      51.27181972      49.08897122
O       50.72150617      48.53640145      51.51132675
H       51.09999501      50.46524025      51.96197009
H       48.79048608      49.57926823      50.15678449
H       49.05422187      51.30727883      50.62893756
H       50.03460419      50.11158214      48.16274300
