9
Lattice="100.0 0.0 0.0 0.0 100.0 0.0 0.0 0.0 100.0" Properties=species:S:1:pos:R:3 Energy=-167301.66131224047 Energy_pyscf=-167301.49208419566 Energy_pyscf_og=-167301.4925646342 pbc="F F F"
C       50.20196329      49.14378548      50.68537463
C       49.95998144      50.56321052      50.29412988
C       50.07340138      50.85839010      48.70516125
O       50.88044592      51.69261296      48.37639970
O       49.91144043      48.88031145      51.81472922
H       50.84880630      48.56516694      49.93868247
H       48.98449862      50.86123287      50.70836390
H       50.78062327      51.13319073      50.89979111
H       49.39697807      50.44049835      47.84014779
