9
Lattice="100.0 0.0 0.0 0.0 100.0 0.0 0.0 0.0 100.0" Properties=species:S:1:pos:R:3 Energy=-167294.89450584064 Energy_pyscf=-167294.72569726143 Energy_pyscf_og=-167294.7195870121 pbc="F F F"
C       50.20774031      49.15439068      50.73911051
C       49.60535036      49.71366443      49.32622857
C       50.59769802      50.82570949      49.07352990
O       51.64001869      50.75714196      48.39903700
O       51.02905122      48.27052729      50.87692790
H       49.70371008      49.76389185      51.63493781
H       49.79258211      48.92970902      48.60370520
H       48.35538371      49.89042324      49.39716884
H       50.50295966      51.62380164      49.70322761
