9
Lattice="100.0 0.0 0.0 0.0 100.0 0.0 0.0 0.0 100.0" Properties=species:S:1:pos:R:3 Energy=-167304.08800892925 Energy_pyscf=-167303.91082486426 Energy_pyscf_og=-167303.91046183332 pbc="F F F"
C       49.42375254      48.86933444      50.96786347
C       49.41040997      49.44919110      49.67432043
C       50.67826326      50.35158844      49.18139436
O       50.43153657      51.34047768      48.47875415
O       50.42931902      48.68906819      51.69041072
H       48.28124916      48.76418660      51.26739520
H       49.20591684      48.70340758      48.88820874
H       48.54962687      50.21528219      49.52104178
H       51.70006866      49.98090155      49.34888274
