9
Lattice="100.0 0.0 0.0 0.0 100.0 0.0 0.0 0.0 100.0" Properties=species:S:1:pos:R:3 Energy=-167304.3216985396 Energy_pyscf=-167304.14385476793 Energy_pyscf_og=-167304.14676564603 pbc="F F F"
C       49.97187454      48.81601735      50.79091980
C       49.54587496      49.56956869      49.55054331
C       50.41883971      50.72184645      49.09405597
O       51.46012538      50.48914110      48.53158375
O       51.09452156      48.30794934      50.93531165
H       49.09999135      48.51559606      51.54397637
H       49.25905383      48.91377515      48.71951155
H       48.51722135      50.10701257      49.61807671
H       50.16200390      51.70972102      49.45398361
