9
Lattice="100.0 0.0 0.0 0.0 100.0 0.0 0.0 0.0 100.0" Properties=species:S:1:pos:R:3 Energy=-167306.39694551722 Energy_pyscf=-167306.23209093674 Energy_pyscf_og=-167306.22378457873 pbc="F F F"
C       49.45043022      49.07095721      50.94903208
C       49.26199300      49.59822145      49.53424111
C       50.67438439      50.29942671      49.15624311
O       50.68725722      51.43152548      48.87536231
O       50.49233623      48.95752087      51.57238191
H       48.44546864      48.88726571      51.42229985
H       49.06877240      48.71780473      48.87019208
H       48.30652082      50.22464614      49.42587155
H       51.70815256      49.82300376      49.25108746
