9
Lattice="100.0 0.0 0.0 0.0 100.0 0.0 0.0 0.0 100.0" Properties=species:S:1:pos:R:3 Energy=-167310.59786965162 Energy_pyscf=-167306.2576829472 Energy_pyscf_og=-167310.43147957177 pbc="F F F"
C       50.05573473      49.26453775      51.24485306
C       49.59884320      50.47581071      50.47999350
C       50.49309995      50.77792138      49.22228142
O       51.42986617      51.46965308      49.27255906
O       50.96966587      49.20025746      52.05542374
H       49.45635231      48.40114608      51.09518748
H       48.59478531      50.28223672      50.12324196
H       49.61513890      51.46310920      51.02592883
H       50.24891243      49.98231821      48.46304015
