9
Lattice="100.0 0.0 0.0 0.0 100.0 0.0 0.0 0.0 100.0" Properties=species:S:1:pos:R:3 Energy=-167304.14069984935 Energy_pyscf=-167303.97272313075 Energy_pyscf_og=-167303.97240638614 pbc="F F F"
C       50.15541508      49.41846987      50.96554355
C       49.93235355      49.73336802      49.51125605
C       50.83773377      51.00232182      49.36862609
O       51.24239153      51.26002365      48.24183075
O       50.73866189      48.46178183      51.41540252
H       49.45099474      50.01381260      51.70472491
H       50.35649521      48.94498601      48.82736106
H       48.82973224      49.84038325      49.34088286
H       51.14308009      51.52740750      50.22914157
