9
Lattice="100.0 0.0 0.0 0.0 100.0 0.0 0.0 0.0 100.0" Properties=species:S:1:pos:R:3 Energy=-167302.77700471663 Energy_pyscf=-167302.61019275995 Energy_pyscf_og=-167302.607573332 pbc="F F F"
C       50.58842345      49.20479274      50.78072757
C       49.49408524      49.92159496      50.07290162
C       50.09787942      51.00359189      49.07733225
O       51.21626822      50.73769874      48.68534331
O       50.49226321      48.15192207      51.46993422
H       51.56085566      49.74652739      50.78701086
H       49.14465199      49.28337049      49.27236255
H       48.48933598      50.02252773      50.50676101
H       49.50477462      51.85416490      48.57548836
