9
Lattice="100.0 0.0 0.0 0.0 100.0 0.0 0.0 0.0 100.0" Properties=species:S:1:pos:R:3 Energy=-167313.10366610592 Energy_pyscf=-167312.94284465222 Energy_pyscf_og=-167312.93935438714 pbc="F F F"
C       50.01065721      49.28554809      50.48544447
C       49.34169557      50.48443600      49.83405502
C       50.55285562      51.31633817      49.42806789
O       50.83060140      51.51268863      48.24185592
O       50.43528700      49.33533563      51.61006617
H       50.22635300      48.42215497      49.78877794
H       48.75652634      50.27906318      48.98073561
H       48.86757509      50.95877648      50.76898493
H       51.22184363      51.70501443      50.23208950
