9
Lattice="100.0 0.0 0.0 0.0 100.0 0.0 0.0 0.0 100.0" Properties=species:S:1:pos:R:3 Energy=-167303.00053644268 Energy_pyscf=-167302.81999768713 Energy_pyscf_og=-167302.82412104664 pbc="F F F"
C       50.38909269      49.62725746      51.38087784
C       49.46024880      50.16442831      50.29996369
C       50.51951840      50.50106149      49.15305389
O       51.17737928      51.57075616      49.15798609
O       50.55950920      48.51070847      51.75468845
H       50.83663830      50.55247178      51.83109539
H       48.71159776      49.39569631      49.86670445
H       48.84037389      51.13607333      50.66801374
H       50.64983128      49.84615726      48.16825021
