9
Lattice="100.0 0.0 0.0 0.0 100.0 0.0 0.0 0.0 100.0" Properties=species:S:1:pos:R:3 Energy=-167306.63301268127 Energy_pyscf=-167288.3084408341 Energy_pyscf_og=-167306.45967434734 pbc="F F F"
C       50.54945317      49.20336953      50.85433857
C       49.77957901      50.62223457      50.40843015
C       50.08702313      50.95093316      48.95172639
O       51.28228080      51.34387025      48.74241122
O       50.49050294      48.73797661      51.89048207
H       51.18722140      48.69416552      49.99654668
H       48.83076817      50.03093201      50.36596681
H       49.89285126      51.19407187      51.34618715
H       49.39288021      50.62592704      48.01899839
