9
Lattice="100.0 0.0 0.0 0.0 100.0 0.0 0.0 0.0 100.0" Properties=species:S:1:pos:R:3 Energy=-167309.69324502532 Energy_pyscf=-167309.5091676768 Energy_pyscf_og=-167309.52321829603 pbc="F F F"
C       50.33932273      49.66342347      51.38272518
C       49.50416082      50.23561004      50.21695989
C       50.43868021      50.54294622      49.13210211
O       51.12443777      51.55822025      49.17975852
O       50.49226853      48.53173959      51.64223750
H       50.88390440      50.58064458      51.87293918
H       48.84703985      49.46984124      49.82545325
H       48.89006785      50.99693726      50.70458484
H       50.63696699      49.73742043      48.32224341
