9
Lattice="100.0 0.0 0.0 0.0 100.0 0.0 0.0 0.0 100.0" Properties=species:S:1:pos:R:3 Energy=-167310.0621185285 Energy_pyscf=-167309.97661879903 Energy_pyscf_og=-167309.8929839406 pbc="F F F"
C       49.38953263      49.07764359      50.98453984
C       49.36923321      49.60508048      49.50094105
C       50.61879444      50.38434553      49.11429828
O       50.56274542      51.44321798      48.53380473
O       50.42974885      48.49028971      51.34584543
H       48.51329296      49.22456893      51.63357091
H       49.27674887      48.74386559      48.82252278
H       48.40022621      50.15235076      49.51243649
H       51.57274998      49.92861541      49.62849484
