9
Lattice="100.0 0.0 0.0 0.0 100.0 0.0 0.0 0.0 100.0" Properties=species:S:1:pos:R:3 Energy=-167303.4814898297 Energy_pyscf=-167301.66907221818 Energy_pyscf_og=-167303.30782244576 pbc="F F F"
C       50.01192370      49.19719359      51.23600664
C       49.56421436      50.37017624      50.33263313
C       50.60611423      50.75280409      49.29938731
O       51.48396554      51.62438743      49.42222571
O       51.13151851      49.19433942      51.72608348
H       49.26622059      48.42139360      51.67788462
H       48.42126737      50.34379722      50.07821239
H       49.58955583      51.29515684      50.92282552
H       50.36414389      50.12559075      48.27763198
