9
Lattice="100.0 0.0 0.0 0.0 100.0 0.0 0.0 0.0 100.0" Properties=species:S:1:pos:R:3 Energy=-167295.95204457158 Energy_pyscf=-167295.78068693026 Energy_pyscf_og=-167295.7807957884 pbc="F F F"
C       50.50163920      49.72118352      51.17138741
C       49.39119847      50.37813317      50.51370196
C       49.86180303      51.08116869      49.17695369
O       51.12292170      51.21230941      49.04454515
O       50.35465427      48.50342862      51.63794766
H       51.41432949      50.30914812      51.42215067
H       48.55593487      49.77615349      50.48024371
H       49.01737599      51.21830908      51.20385937
H       49.19548701      51.35260191      48.21993415
