9
Lattice="100.0 0.0 0.0 0.0 100.0 0.0 0.0 0.0 100.0" Properties=species:S:1:pos:R:3 Energy=-167295.27530252017 Energy_pyscf=-167295.09481292396 Energy_pyscf_og=-167295.0958437232 pbc="F F F"
C       49.54336087      49.27522822      50.88170838
C       49.46150611      50.12801536      49.75412883
C       50.54831647      50.96160019      49.47251851
O       50.60694675      51.78970783      48.60910924
O       50.34447074      49.20084217      51.73059040
H       48.83206154      48.43159544      50.64716768
H       49.20538241      49.49264348      48.81256252
H       48.71400020      50.86647590      49.83576607
H       51.44405780      50.96352428      50.16109328
