9
Lattice="100.0 0.0 0.0 0.0 100.0 0.0 0.0 0.0 100.0" Properties=species:S:1:pos:R:3 Energy=-167307.6706901883 Energy_pyscf=-167307.48958284923 Energy_pyscf_og=-167307.50341887574 pbc="F F F"
C       50.18282121      49.01872265      50.45785682
C       49.52022568      50.35773734      50.05682581
C       50.31271138      51.20687355      49.03847984
O       51.38869645      50.88953015      48.55904970
O       50.91147372      48.89781979      51.41751484
H       50.14963837      48.02008712      49.80802003
H       48.55794624      50.05572931      49.74004903
H       49.60511439      51.05914628      50.92413637
H       49.83585759      52.16094268      48.73097702
