9
Lattice="100.0 0.0 0.0 0.0 100.0 0.0 0.0 0.0 100.0" Properties=species:S:1:pos:R:3 Energy=-167304.82259578537 Energy_pyscf=-167301.6358920974 Energy_pyscf_og=-167304.65312009072 pbc="F F F"
C       50.30556080      48.90591411      50.48343274
C       49.59323592      50.09207090      49.95906700
C       50.27983579      51.10274504      49.15394909
O       51.19275789      50.78155849      48.50275722
O       50.54241412      48.58606964      51.65389818
H       50.46626879      48.03158100      49.76728896
H       48.68363303      49.65461752      49.48029703
H       49.20084778      50.55532419      50.91133159
H       50.05974064      52.12492215      49.50666422
