9
Lattice="100.0 0.0 0.0 0.0 100.0 0.0 0.0 0.0 100.0" Properties=species:S:1:pos:R:3 Energy=-167307.64192285543 Energy_pyscf=-167307.49018854165 Energy_pyscf_og=-167307.47155405555 pbc="F F F"
C       50.55825388      49.74672123      51.28865503
C       49.34538068      50.54618658      50.54140341
C       49.88340764      51.09556571      49.20891144
O       51.09075268      51.12250308      48.95022505
O       50.36628293      48.56498379      51.41778976
H       51.53135179      50.20623491      51.51954593
H       48.57751702      49.72553857      50.43458584
H       48.87332141      51.26833765      51.20607325
H       49.22601727      51.26802249      48.30714480
