9
Lattice="100.0 0.0 0.0 0.0 100.0 0.0 0.0 0.0 100.0" Properties=species:S:1:pos:R:3 Energy=-167309.9206502952 Energy_pyscf=-167309.73921370218 Energy_pyscf_og=-167309.73975367623 pbc="F F F"
C       50.45416241      49.14393788      50.73122969
C       49.75619418      50.50445363      50.38462766
C       49.97512490      50.97580171      49.01327392
O       50.99572331      51.24117302      48.45880926
O       50.05720699      48.31038104      51.55285953
H       51.30275104      48.85097969      50.10501760
H       48.70493740      50.44761195      50.55887224
H       50.06093110      51.24956725      51.14824588
H       49.03996760      51.29867840      48.47745828
