9
Lattice="100.0 0.0 0.0 0.0 100.0 0.0 0.0 0.0 100.0" Properties=species:S:1:pos:R:3 Energy=-167305.9179721943 Energy_pyscf=-167305.74866812525 Energy_pyscf_og=-167305.74664210787 pbc="F F F"
C       50.20325464      48.70180684      50.47093215
C       49.55459979      50.11036446      50.17677833
C       50.32338691      50.95370151      49.25604661
O       51.34013326      50.77714555      48.60323726
O       50.58924492      48.52842307      51.62696582
H       50.53221681      48.21627558      49.52574672
H       48.71791309      49.86301599      49.48280821
H       49.21374768      50.66389874      51.07856396
H       49.81450653      52.00537501      49.14766028
