9
Lattice="100.0 0.0 0.0 0.0 100.0 0.0 0.0 0.0 100.0" Properties=species:S:1:pos:R:3 Energy=-167300.41896137013 Energy_pyscf=-167300.24076005202 Energy_pyscf_og=-167300.25168510884 pbc="F F F"
C       50.07854219      49.21273300      51.29775228
C       49.48806235      50.46805789      50.34375400
C       50.55360809      50.84156719      49.28300672
O       51.41674116      51.58363714      49.48362549
O       51.19758300      48.94003649      51.38449725
H       49.24142645      48.59693812      51.81874573
H       48.52824118      50.21865440      49.93552615
H       49.44010541      51.39951560      50.91021862
H       50.49598312      50.04575037      48.50944496
