9
Lattice="100.0 0.0 0.0 0.0 100.0 0.0 0.0 0.0 100.0" Properties=species:S:1:pos:R:3 Energy=-167295.0535183917 Energy_pyscf=-167294.85923782698 Energy_pyscf_og=-167294.8610355009 pbc="F F F"
C       50.35991967      48.89519138      50.89809873
C       49.29507995      49.88960813      50.10565165
C       49.88418631      50.90441703      49.07109239
O       50.82574778      50.78339550      48.26794885
O       50.16690533      47.84628509      51.46142699
H       51.38686724      49.06402732      50.71188128
H       48.95012819      49.07373226      49.49606067
H       48.55512865      50.48723005      50.76364476
H       49.43780528      51.89567994      49.37037449
