9
Lattice="100.0 0.0 0.0 0.0 100.0 0.0 0.0 0.0 100.0" Properties=species:S:1:pos:R:3 Energy=-167307.11662885454 Energy_pyscf=-167306.9531567688 Energy_pyscf_og=-167306.95220617292 pbc="F F F"
C       50.33212703      49.67175990      51.19312371
C       49.52879212      49.94012053      49.89790885
C       50.54565007      50.29172236      48.86245207
O       50.89056907      51.45387444      48.84375186
O       50.41096972      48.56991941      51.69159010
H       50.67452819      50.68312090      51.60701829
H       48.86836215      49.12776874      49.64519109
H       49.12792605      50.93759343      49.93609539
H       51.23651354      49.48660206      48.37748814
