9
Lattice="100.0 0.0 0.0 0.0 100.0 0.0 0.0 0.0 100.0" Properties=species:S:1:pos:R:3 Energy=-167309.19274900845 Energy_pyscf=-167309.023568385 Energy_pyscf_og=-167309.02227324684 pbc="F F F"
C       50.40012641      48.75530861      50.63441347
C       49.56960019      49.93992864      50.09703196
C       50.01141505      50.88657137      49.03742623
O       50.97958421      50.74676124      48.33504026
O       50.08142729      48.17321521      51.60751475
H       51.15471218      48.36662800      49.82133545
H       48.84565564      49.34772675      49.53849899
H       48.96661744      50.38506841      50.98996046
H       49.34205318      51.85034355      48.85384427
