9
Lattice="100.0 0.0 0.0 0.0 100.0 0.0 0.0 0.0 100.0" Properties=species:S:1:pos:R:3 Energy=-167304.2438582835 Energy_pyscf=-167304.07766560663 Energy_pyscf_og=-167304.0780363929 pbc="F F F"
C       49.45518493      49.03788184      50.96291970
C       49.29267052      49.66471288      49.66901662
C       50.63257164      50.28590264      49.15311695
O       50.68861616      51.31358938      48.39636356
O       50.49121873      48.88691491      51.56440992
H       48.38795346      48.64098117      51.27213659
H       49.12150310      48.91928610      48.99822681
H       48.44465471      50.38384723      49.61204654
H       51.58678835      49.87059775      49.45666619
