9
Lattice="100.0 0.0 0.0 0.0 100.0 0.0 0.0 0.0 100.0" Properties=species:S:1:pos:R:3 Energy=-167307.15730528306 Energy_pyscf=-167304.34896853726 Energy_pyscf_og=-167306.9907950171 pbc="F F F"
C       50.07727232      49.17453221      50.72382845
C       49.56621978      49.67339507      49.34299131
C       50.66800156      50.81932869      49.04705633
O       51.61497573      50.81029179      48.30168650
O       51.08211132      48.50716560      50.77197778
H       49.55836681      49.61229225      51.73558648
H       49.72275905      48.75579566      48.63648636
H       48.53810639      49.98975634      49.40312228
H       50.58610600      51.59436073      49.78262670
