9
Lattice="100.0 0.0 0.0 0.0 100.0 0.0 0.0 0.0 100.0" Properties=species:S:1:pos:R:3 Energy=-167307.74605329047 Energy_pyscf=-167302.5796395912 Energy_pyscf_og=-167307.57139224952 pbc="F F F"
C       50.54415755      49.77383704      51.43995379
C       49.56185126      50.33756134      50.41258658
C       50.30004865      50.65897957      49.02545123
O       51.36270866      51.19454973      49.14520712
O       50.65746392      48.51134390      51.63795474
H       51.11571664      50.50262477      52.06607282
H       48.80120918      49.57380764      50.26191741
H       49.04491940      51.21570937      50.69079302
H       50.05552253      50.21569799      47.95747949
