9
Lattice="100.0 0.0 0.0 0.0 100.0 0.0 0.0 0.0 100.0" Properties=species:S:1:pos:R:3 Energy=-167307.89608322355 Energy_pyscf=-167308.41012134816 Energy_pyscf_og=-167307.71981236458 pbc="F F F"
C       49.80525574      49.12842364      50.53767764
C       49.40330309      50.60481648      50.05341832
C       50.63541080      51.23709863      49.32359343
O       50.67126997      51.27761947      48.08021052
O       50.39904767      48.97977307      51.62191087
H       49.66136275      48.16260872      49.99443786
H       48.63123872      50.52921696      49.22457491
H       49.15356328      51.25741919      50.94251497
H       51.39308854      51.71215804      50.03957340
