9
Lattice="100.0 0.0 0.0 0.0 100.0 0.0 0.0 0.0 100.0" Properties=species:S:1:pos:R:3 Energy=-167305.6904371536 Energy_pyscf=-167305.51339259252 Energy_pyscf_og=-167305.5094224379 pbc="F F F"
C       50.40720126      48.93879857      50.78391403
C       49.33397360      49.88583821      50.09538742
C       49.96087063      50.88521217      49.22434052
O       50.90278865      50.69023106      48.48700414
O       49.98419775      48.13371539      51.54060108
H       51.39419299      49.10671975      50.39846569
H       48.87770811      48.98484827      49.53019535
H       48.61543324      50.31231762      50.73509399
H       49.36010464      51.89716297      49.36993579
