9
Lattice="100.0 0.0 0.0 0.0 100.0 0.0 0.0 0.0 100.0" Properties=species:S:1:pos:R:3 Energy=-167301.63358099601 Energy_pyscf=-167301.4696775226 Energy_pyscf_og=-167301.46936658127 pbc="F F F"
C       49.85097394      49.20534126      50.69364658
C       49.44745820      50.67408980      49.97946115
C       50.60863737      51.27689600      49.26325414
O       50.48652343      51.61405232      48.13987849
O       49.95367874      49.06654872      51.88888068
H       50.01780197      48.40224029      49.80298719
H       48.61213073      50.32156398      49.30771176
H       49.19600863      51.17219132      50.94190066
H       51.53668729      51.17454473      49.81545324
