9
Lattice="100.0 0.0 0.0 0.0 100.0 0.0 0.0 0.0 100.0" Properties=species:S:1:pos:R:3 Energy=-167305.67104136033 Energy_pyscf=-167305.50207272082 Energy_pyscf_og=-167305.5043520342 pbc="F F F"
C       50.13285915      49.02682571      50.75946351
C       49.82853640      50.43068497      50.19563041
C       50.65598482      50.52565841      48.90421255
O       51.16325239      51.68946979      48.69076103
O       50.65563438      48.80259061      51.82694215
H       49.75320145      48.22867798      50.12813589
H       48.69932376      50.42271015      49.98916426
H       50.09890760      51.26195150      50.90443055
H       50.58520799      49.68582423      48.11519440
