9
Lattice="100.0 0.0 0.0 0.0 100.0 0.0 0.0 0.0 100.0" Properties=species:S:1:pos:R:3 Energy=-167307.49438002415 Energy_pyscf=-167307.32074432672 Energy_pyscf_og=-167307.32317061687 pbc="F F F"
C       50.02583885      49.22273225      50.64687621
C       49.40774162      50.48588427      49.86155284
C       50.49119516      51.40246942      49.35785455
O       50.53312842      51.94603114      48.29743606
O       50.22740504      49.06087932      51.82656093
H       50.38834974      48.35133612      49.95940885
H       48.89252960      50.30548386      48.94831429
H       48.86012899      51.10809681      50.57002950
H       51.43558785      51.45168407      49.95030394
