9
Lattice="100.0 0.0 0.0 0.0 100.0 0.0 0.0 0.0 100.0" Properties=species:S:1:pos:R:3 Energy=-167299.7521086729 Energy_pyscf=-167299.57729527185 Energy_pyscf_og=-167299.5795699082 pbc="F F F"
C       50.00750100      49.13474807      51.13681985
C       49.72121225      49.68412929      49.69967950
C       50.59103942      50.98569785      49.23784596
O       51.25248035      51.30646659      48.25652187
O       50.49428679      48.03980241      51.27316336
H       49.73332110      49.99051859      52.05115243
H       49.93797935      48.78280368      49.11634415
H       48.69350513      49.96283250      49.56140536
H       50.37794263      51.73685378      49.98232251
