9
Lattice="100.0 0.0 0.0 0.0 100.0 0.0 0.0 0.0 100.0" Properties=species:S:1:pos:R:3 Energy=-167308.61715683507 Energy_pyscf=-167308.44402580513 Energy_pyscf_og=-167308.44428113668 pbc="F F F"
C       50.47380459      49.68164670      51.49686008
C       49.70822022      50.31747600      50.42018370
C       50.32975372      50.72449084      49.07325295
O       51.26144231      51.47159845      48.99487328
O       50.39901515      48.51166009      51.76722215
H       51.23982639      50.42243081      51.96350008
H       48.96753334      49.49014832      50.17202133
H       49.09316941      51.19598021      50.62853039
H       49.96612981      50.15898939      48.11849315
