9
Lattice="100.0 0.0 0.0 0.0 100.0 0.0 0.0 0.0 100.0" Properties=species:S:1:pos:R:3 Energy=-167306.5092033031 Energy_pyscf=-167303.79659152628 Energy_pyscf_og=-167306.3398054226 pbc="F F F"
C       49.73688627      49.04172919      50.81073450
C       49.50764929      50.21673399      49.88778151
C       50.78001968      50.44265624      49.00598207
O       50.89109037      51.61261278      48.61113785
O       50.84388650      48.80985524      51.31091687
H       48.86985460      48.44195083      51.22758686
H       48.67049966      49.94947124      49.31420319
H       49.13276253      51.20092209      50.18187661
H       51.55104012      49.61865466      48.78272725
