9
Lattice="100.0 0.0 0.0 0.0 100.0 0.0 0.0 0.0 100.0" Properties=species:S:1:pos:R:3 Energy=-167296.61437379397 Energy_pyscf=-167291.74582432714 Energy_pyscf_og=-167296.45150084316 pbc="F F F"
C       49.98866014      49.12933044      50.62936081
C       49.41471986      50.59195866      49.85355265
C       50.55052023      51.36864466      49.36650470
O       50.52802866      51.72681040      48.25377590
O       50.36224569      49.23900382      51.76887915
H       50.37186843      48.39564608      49.93135483
H       48.82327409      50.43741590      48.84426047
H       48.75074106      50.90631563      50.62722597
H       51.48229327      51.51623436      50.12026954
