9
Lattice="100.0 0.0 0.0 0.0 100.0 0.0 0.0 0.0 100.0" Properties=species:S:1:pos:R:3 Energy=-167302.90207204357 Energy_pyscf=-167302.7339049749 Energy_pyscf_og=-167302.72984070357 pbc="F F F"
C       49.44496030      49.07164244      50.99700467
C       49.40785205      49.61715533      49.56913799
C       50.56306794      50.45620397      49.06485912
O       50.58456847      51.52606103      48.50686485
O       50.37827808      48.42787440      51.54693688
H       48.39733728      49.03037245      51.46782261
H       49.30376439      48.67428432      49.12456891
H       48.58220893      50.28452390      49.41361171
H       51.42979565      49.91559095      49.37299477
