15
Lattice="100.0 0.0 0.0 0.0 100.0 0.0 0.0 0.0 100.0" Properties=species:S:1:pos:R:3 Energy=-170043.671875 Energy_pyscf=-170042.72961907662 pbc="F F F"
C       52.42221043      49.88885742      50.41127261
C       50.93949327      49.90910250      50.13587656
C       50.12571895      49.02535298      50.83659623
C       48.68737345      49.01413893      50.82754555
C       48.03990910      49.92774960      50.02991681
C       48.78058047      50.80368819      49.26831467
C       50.23376526      50.98271443      49.37058230
H       52.73598768      50.42088672      51.30547690
H       52.81561091      48.86728488      50.65672596
H       52.94615369      50.19165046      49.51169340
H       50.52714373      48.25128455      51.50650288
H       48.12778112      48.32766380      51.53326737
H       46.94188882      49.94523671      49.94683976
H       48.24197023      51.38280870      48.56075721
H       50.81804208      51.66495941      48.77324494
