15
Lattice="100.0 0.0 0.0 0.0 100.0 0.0 0.0 0.0 100.0" Properties=species:S:1:pos:R:3 Energy=-170036.796875 Energy_pyscf=-170037.2173651028 pbc="F F F"
C       52.53757229      50.01256596      50.19079289
C       50.97656481      50.02112504      50.16222471
C       50.18795913      49.14394678      50.88989039
C       48.86878049      49.18836528      50.70044600
C       48.17443891      50.11307886      49.85742088
C       48.95243179      50.99504550      49.13844201
C       50.33152340      50.90536302      49.30377147
H       52.88468156      49.99853298      49.20518519
H       52.90538624      50.94944159      50.80352241
H       52.97199672      49.11839465      50.68109393
H       50.72058318      48.36918409      51.52652416
H       48.24188745      48.35694299      51.09716625
H       47.10165952      49.93001508      49.84176935
H       48.52385089      51.57771338      48.46435212
H       50.95749742      51.52045519      48.71854536
