15
Lattice="100.0 0.0 0.0 0.0 100.0 0.0 0.0 0.0 100.0" Properties=species:S:1:pos:R:3 Energy=-170033.140625 Energy_pyscf=-170032.21301226557 pbc="F F F"
C       52.63522129      49.86005548      50.01058416
C       51.07912965      49.86083617      50.02603129
C       50.27627724      49.03312204      50.74207092
C       48.91880718      49.05117338      50.63737319
C       48.26061962      49.85134359      49.69874464
C       49.01938792      50.83247114      49.02728689
C       50.40256267      50.84177985      49.19809514
H       52.90635869      50.33954037      49.01079333
H       52.95208395      50.46221939      50.88935007
H       52.93008661      48.82425083      50.07201479
H       50.50408172      48.61774212      51.79168512
H       48.27286427      48.49970042      51.37016969
H       47.22192696      49.98520444      49.48443872
H       48.64848002      51.59003723      48.24328341
H       50.88595488      51.45404027      48.45125953
