15
Lattice="100.0 0.0 0.0 0.0 100.0 0.0 0.0 0.0 100.0" Properties=species:S:1:pos:R:3 Energy=-170040.984375 Energy_pyscf=-170038.79663824113 pbc="F F F"
C       52.56107784      49.79361140      50.06424024
C       51.06831299      49.95440254      49.99313702
C       50.30900871      49.15188777      50.78765546
C       48.88020013      49.21798069      50.68085894
C       48.23103740      49.87084500      49.65391732
C       49.02517111      50.79396122      48.93919113
C       50.37582738      50.93223306      49.15730122
H       52.94903796      50.18144229      49.08365234
H       53.00812628      50.48786284      50.79070331
H       52.90202338      48.79357749      50.15091293
H       50.60444820      48.46499791      51.60825675
H       48.23387619      48.59245224      51.43875433
H       47.12870925      49.70183519      49.48907080
H       48.65298792      51.56103606      48.33876554
H       51.00756560      51.63379747      48.49272118
