15
Lattice="100.0 0.0 0.0 0.0 100.0 0.0 0.0 0.0 100.0" Properties=species:S:1:pos:R:3 Energy=-170037.40625 Energy_pyscf=-170036.96276609506 pbc="F F F"
C       52.57785329      49.82692541      50.08624466
C       51.09195321      49.93107738      49.96582812
C       50.22007799      49.17613537      50.80861344
C       48.86682905      49.17493008      50.74512476
C       48.25709885      49.87676254      49.67285736
C       48.99306611      50.81833910      49.03679749
C       50.49652602      50.83373011      49.09438058
H       52.97104095      50.21805290      49.11269825
H       52.89413158      50.55907727      50.76147320
H       53.01980161      48.78367448      50.16935556
H       50.63368666      48.40238757      51.51380404
H       48.19835116      48.58947856      51.41974142
H       47.23197954      49.86614152      49.38707547
H       48.48726977      51.55904069      48.44004224
H       50.99770895      51.49279380      48.42870890
