15
Lattice="100.0 0.0 0.0 0.0 100.0 0.0 0.0 0.0 100.0" Properties=species:S:1:pos:R:3 Energy=-170031.453125 Energy_pyscf=-170027.29033970763 pbc="F F F"
C       52.26375037      49.94715812      50.31238883
C       50.79564378      50.01118016      50.17802173
C       50.18012789      48.91866546      50.79813382
C       48.66873816      49.06983036      50.78392684
C       48.04721745      49.98520229      49.87488100
C       48.77093350      50.86097212      49.15157229
C       50.10820638      50.88795058      49.28096997
H       52.79162226      49.11319548      49.71812992
H       52.85368075      50.81246769      50.04597582
H       52.54406530      49.41917308      51.26846619
H       50.57082329      48.31618460      51.59471324
H       48.12204229      48.40333670      51.46097464
H       46.90081342      49.98276275      49.76006186
H       48.20347823      51.49076664      48.50606312
H       50.80565228      51.50501759      48.65373464
