15
Lattice="100.0 0.0 0.0 0.0 100.0 0.0 0.0 0.0 100.0" Properties=species:S:1:pos:R:3 Energy=-170044.109375 Energy_pyscf=-170041.35791601785 pbc="F F F"
C       52.46062787      50.10179385      50.14538302
C       51.01304504      49.94985533      50.03141669
C       50.28352012      49.11103512      50.83855371
C       48.91601785      49.16124829      50.68617567
C       48.28460312      50.08346143      49.73552542
C       49.02472552      51.02411761      49.06859147
C       50.40693694      50.92852498      49.17019674
H       52.98172435      50.39409286      49.24718166
H       52.78310906      50.81495402      50.94591247
H       52.90387039      49.09569782      50.38750411
H       50.71609221      48.59707969      51.66828288
H       48.21709610      48.45297885      51.12066757
H       47.10013873      50.06704180      49.65166086
H       48.54243026      51.67114990      48.30846900
H       51.14526404      51.65994701      48.71186114
