15
Lattice="100.0 0.0 0.0 0.0 100.0 0.0 0.0 0.0 100.0" Properties=species:S:1:pos:R:3 Energy=-170043.640625 Energy_pyscf=-170044.10252275874 pbc="F F F"
C       52.53374707      49.87051136      50.01965772
C       51.07784609      49.94149086      49.94746243
C       50.28256058      49.05951153      50.76882605
C       48.85759962      49.10855383      50.72498577
C       48.23821930      49.95703301      49.69466488
C       49.00005026      50.87050303      49.04401198
C       50.41445358      50.86089775      49.15095276
H       52.95528390      50.35901960      49.18919027
H       52.92785297      50.42446447      50.84927162
H       52.91569034      48.84914311      50.17727191
H       50.75489304      48.47358447      51.58933756
H       48.27180585      48.54875614      51.39738031
H       47.17518639      49.91374341      49.46545920
H       48.56928194      51.57008524      48.26080649
H       51.01627179      51.33856963      48.38405726
