15
Lattice="100.0 0.0 0.0 0.0 100.0 0.0 0.0 0.0 100.0" Properties=species:S:1:pos:R:3 Energy=-170033.71875 Energy_pyscf=-170031.47738007907 pbc="F F F"
C       52.41973031      49.85076684      50.05094242
C       50.97474710      49.88748305      50.11049323
C       50.13384546      49.03768986      50.92111069
C       48.76565333      48.96573337      50.67062383
C       48.08826907      49.96183246      49.69142656
C       48.94450119      50.82665214      49.08824957
C       50.33324794      50.65594595      49.14763957
H       52.76164669      50.86780114      49.77030738
H       52.88245751      49.76440232      50.98538170
H       52.94529722      49.23346869      49.28509599
H       50.52498122      48.25525940      51.66777940
H       48.09309579      48.39958938      51.33147607
H       47.02931080      50.11077373      49.86168332
H       48.44150123      51.55993151      48.47011691
H       50.90849573      51.42033446      48.65465618
