15
Lattice="100.0 0.0 0.0 0.0 100.0 0.0 0.0 0.0 100.0" Properties=species:S:1:pos:R:3 Energy=-170039.109375 Energy_pyscf=-170036.62592592405 pbc="F F F"
C       52.30365172      49.95017951      50.11711628
C       50.86970142      49.94950129      50.04664519
C       50.12580508      48.95732754      50.79002877
C       48.72588316      49.03740140      50.54448815
C       48.02174538      49.97334604      49.71969538
C       48.84941832      50.83017405      48.89567332
C       50.24880033      50.72091708      49.06088085
H       52.67932155      50.98361171      50.19077130
H       52.76297884      49.37403084      50.93612571
H       52.81664760      49.61589903      49.15040777
H       50.54109967      48.43033784      51.62229337
H       47.94387263      48.66997973      51.24522235
H       46.91675142      50.06550398      49.66608174
H       48.30602959      51.63792968      48.27538951
H       50.88729990      51.36808854      48.35775607
