15
Lattice="100.0 0.0 0.0 0.0 100.0 0.0 0.0 0.0 100.0" Properties=species:S:1:pos:R:3 Energy=-170039.046875 Energy_pyscf=-170039.31844980898 pbc="F F F"
C       52.51705249      50.16267943      50.28470225
C       51.00761106      49.95086952      50.12262879
C       50.13777151      49.09194065      50.87868598
C       48.76919128      49.18786703      50.84349645
C       48.06120129      50.06464908      49.99552645
C       48.96692045      50.86959522      49.16694734
C       50.33338852      50.80799416      49.22561046
H       52.64699288      51.02312776      50.83330982
H       52.95322315      49.36126241      50.81718503
H       52.91933134      50.27053078      49.26053078
H       50.54741201      48.46744762      51.67126190
H       48.28946386      48.62395992      51.67986825
H       47.04515559      50.07783580      49.74587543
H       48.50811377      51.60360444      48.41797657
H       50.95915064      51.49590758      48.71557718
