15
Lattice="100.0 0.0 0.0 0.0 100.0 0.0 0.0 0.0 100.0" Properties=species:S:1:pos:R:3 Energy=-170031.59375 Energy_pyscf=-170028.59122627095 pbc="F F F"
C       52.35912407      50.01658978      50.08652250
C       50.91943549      49.86671270      49.93526459
C       50.10143289      49.14466489      50.85653332
C       48.63092177      49.11720753      50.66745391
C       48.10981480      50.00364580      49.78132495
C       48.91692057      50.93070640      49.04555892
C       50.30176899      50.80307571      49.07663365
H       52.90428247      49.05842421      50.05281078
H       52.72544292      50.64544038      49.28324792
H       52.86017010      50.57390498      50.97144250
H       50.52673225      48.31039263      51.36712449
H       48.22920382      48.47876717      51.44263059
H       47.05474517      49.99357126      49.78750326
H       48.53623313      51.78493159      48.61066600
H       51.01744934      51.38231195      48.55511383
