15
Lattice="100.0 0.0 0.0 0.0 100.0 0.0 0.0 0.0 100.0" Properties=species:S:1:pos:R:3 Energy=-170035.65625 Energy_pyscf=-170036.79762637036 pbc="F F F"
C       52.57358195      49.94524422      50.08410175
C       51.07007313      49.96193860      50.12461069
C       50.22186253      49.21556775      50.92292214
C       48.85819366      49.25354096      50.83689057
C       48.27013603      50.06195198      49.83624215
C       49.00274420      50.88015177      49.05032736
C       50.45349633      50.79383415      49.17209843
H       52.73139801      51.08093188      50.04018824
H       52.90764905      49.53121772      50.97673392
H       53.00362906      49.37605782      49.21250350
H       50.72618591      48.38124548      51.48376711
H       48.30145662      48.43542126      51.23026522
H       47.13877052      50.09395410      49.61089420
H       48.57636193      51.65278735      48.42808995
H       51.02377805      51.58326392      48.65800086
