15
Lattice="100.0 0.0 0.0 0.0 100.0 0.0 0.0 0.0 100.0" Properties=species:S:1:pos:R:3 Energy=-170044.203125 Energy_pyscf=-170044.05350850872 pbc="F F F"
C       52.47033660      49.82519841      49.98084721
C       50.97737007      49.94010070      50.04525398
C       50.12347537      49.07565787      50.81920527
C       48.76719259      48.90680537      50.59781262
C       48.13763970      49.92631699      49.80393243
C       48.95422282      50.83318188      49.09170431
C       50.33216760      50.75843986      49.12471103
H       52.82797709      48.90117684      49.45634059
H       52.77495893      50.73401677      49.38493372
H       52.96916086      49.99315043      50.99371214
H       50.59521070      48.35889755      51.55632686
H       48.08934243      48.32244576      51.19524441
H       47.08487541      50.15012304      49.56358396
H       48.44570135      51.63385261      48.52164629
H       50.93009727      51.40223031      48.46602849
