15
Lattice="100.0 0.0 0.0 0.0 100.0 0.0 0.0 0.0 100.0" Properties=species:S:1:pos:R:3 Energy=-170035.328125 Energy_pyscf=-170031.1286655288 pbc="F F F"
C       52.56688355      50.11676954      50.25354268
C       51.12206173      50.15365669      50.07766218
C       50.23416454      49.43879539      50.96711159
C       48.88928441      49.27296803      50.77681198
C       48.19677965      50.13290040      50.01243298
C       49.05121331      51.00441004      49.24633473
C       50.46718580      51.01274044      49.24802398
H       53.03804911      50.67891425      49.46917206
H       52.94936580      50.60064166      51.25215395
H       52.84818084      49.03207260      50.19403196
H       50.84065218      48.64100732      51.54333936
H       48.42641072      48.38296018      51.24386103
H       47.11623136      49.97781558      49.70713968
H       48.75538869      51.69360882      48.41001967
H       50.91102553      51.66053758      48.43890608
