15
Lattice="100.0 0.0 0.0 0.0 100.0 0.0 0.0 0.0 100.0" Properties=species:S:1:pos:R:3 Energy=-170034.765625 Energy_pyscf=-170036.4976175762 pbc="F F F"
C       52.39015562      50.04250847      50.28938378
C       50.84720335      50.05880991      50.13566482
C       50.12072977      49.12973588      50.87466592
C       48.64206795      49.09986394      50.76247414
C       47.99230620      50.07853801      49.97612415
C       48.82365839      50.97227109      49.19328106
C       50.18736993      50.78468778      49.19014573
H       52.95976558      49.07523528      50.28906874
H       52.75874344      50.66010537      49.40014493
H       52.55354902      50.45640054      51.28664944
H       50.56220907      48.38717290      51.50918106
H       47.89866344      48.58581943      51.34115124
H       46.88533876      50.31404106      50.02576702
H       48.41358985      51.73361846      48.56369644
H       50.75076606      51.51350339      48.65353960
