15
Lattice="100.0 0.0 0.0 0.0 100.0 0.0 0.0 0.0 100.0" Properties=species:S:1:pos:R:3 Energy=-170036.390625 Energy_pyscf=-170034.22086137393 pbc="F F F"
C       52.30952120      49.93017376      50.16570816
C       50.84238763      49.87750549      49.89463293
C       50.08836250      49.10038790      50.73162927
C       48.72270045      49.16147926      50.57167133
C       48.10476926      50.00500275      49.78551814
C       48.76225167      50.91632365      49.01629422
C       50.19677708      50.78042962      48.98630407
H       52.60067239      51.02677769      50.21519373
H       52.74169819      49.33985083      50.96033577
H       52.95595015      49.58945801      49.34343462
H       50.46066824      48.42384036      51.51755964
H       48.06436072      48.49876709      51.16740489
H       47.05580359      50.14034552      49.68082811
H       48.24712930      51.57680398      48.37577579
H       50.81625060      51.16762147      48.19547143
