15
Lattice="100.0 0.0 0.0 0.0 100.0 0.0 0.0 0.0 100.0" Properties=species:S:1:pos:R:3 Energy=-170038.375 Energy_pyscf=-170037.26614783265 pbc="F F F"
C       52.47938086      50.23051137      50.28721499
C       50.94625989      50.08046929      50.27100143
C       50.17019306      49.10813771      50.95753515
C       48.79108727      49.23613000      50.85593841
C       48.21219805      50.11107347      50.03746429
C       48.94241838      50.91457346      49.10415088
C       50.32786620      50.96853274      49.31465408
H       52.83140772      51.24342249      50.56629412
H       52.88156637      49.40498276      50.96845857
H       52.78149878      49.89570583      49.33881290
H       50.66253458      48.31623741      51.61168307
H       48.15434252      48.46206229      51.41485269
H       47.13258531      50.09712606      49.81642323
H       48.41079058      51.55138293      48.43189052
H       50.94859459      51.45704381      48.68238621
