15
Lattice="100.0 0.0 0.0 0.0 100.0 0.0 0.0 0.0 100.0" Properties=species:S:1:pos:R:3 Energy=-170040.1875 Energy_pyscf=-170040.36427554395 pbc="F F F"
C       52.31012744      50.02610145      50.43161508
C       50.83596961      50.02730300      50.22753648
C       49.98964518      49.10772359      51.00205914
C       48.56247831      49.12505510      50.89192778
C       48.00145222      50.07250071      50.07657013
C       48.83067375      50.84659979      49.20841338
C       50.20881340      50.94100023      49.31113286
H       52.84388653      49.08620322      50.86933918
H       52.89460589      50.35224081      49.62069099
H       52.65469059      50.82858584      51.14635600
H       50.43373792      48.29305907      51.53967298
H       47.99544988      48.42143162      51.47728868
H       46.92184285      50.12767899      49.92363655
H       48.24047903      51.56469854      48.46019633
H       50.68888753      51.82899568      48.81749856
