15
Lattice="100.0 0.0 0.0 0.0 100.0 0.0 0.0 0.0 100.0" Properties=species:S:1:pos:R:3 Energy=-170042.453125 Energy_pyscf=-170044.9072185223 pbc="F F F"
C       52.43352628      49.91369845      50.05473783
C       50.99958684      49.85820188      50.08201588
C       50.13942120      49.05951490      50.84658157
C       48.73211955      49.07472176      50.69410388
C       48.07414276      49.93676598      49.86005851
C       48.90375841      50.73386794      49.03595852
C       50.30794438      50.71231887      49.22964554
H       52.69146705      50.93926397      49.86736633
H       52.94084495      49.63169693      51.07200730
H       52.87490394      49.18324980      49.26698106
H       50.56364365      48.34516779      51.58987527
H       48.16904889      48.32283365      51.27034871
H       47.02375877      50.18108991      49.88197429
H       48.50691175      51.53569515      48.36031302
H       50.89255401      51.40463330      48.62296964
