15
Lattice="100.0 0.0 0.0 0.0 100.0 0.0 0.0 0.0 100.0" Properties=species:S:1:pos:R:3 Energy=-170036.875 Energy_pyscf=-170034.23495794256 pbc="F F F"
C       52.50255054      49.87851740      50.09283161
C       50.95253907      49.82114857      50.10214557
C       50.16209236      49.04532715      50.97745465
C       48.78955483      48.98653876      50.70740531
C       48.13813508      49.91034372      49.82995563
C       48.88372057      50.75217697      49.00472316
C       50.29711913      50.70543807      49.09928348
H       52.69479875      50.98623913      49.80753974
H       52.79339824      49.62123338      51.11855824
H       52.92058301      49.32919426      49.28131219
H       50.60958852      48.12726948      51.59845517
H       48.06296373      48.44134191      51.29695353
H       47.05054606      50.21219387      49.95866375
H       48.48556418      51.60006994      48.35782550
H       50.92251470      51.40025600      48.52664584
