15
Lattice="100.0 0.0 0.0 0.0 100.0 0.0 0.0 0.0 100.0" Properties=species:S:1:pos:R:3 Energy=-170034.296875 Energy_pyscf=-170035.3883244404 pbc="F F F"
C       52.28429882      50.00709780      50.28611955
C       50.84214976      49.97327460      50.05116528
C       50.06477168      49.09261787      50.83238917
C       48.74898372      49.22555459      50.84560849
C       48.14634679      50.15819641      50.05666095
C       48.78018095      50.94096779      49.14692135
C       50.22128539      50.79022364      49.15750487
H       52.84744842      49.06039292      50.36026700
H       52.81194902      50.70596747      49.51261428
H       52.27623337      50.53990012      51.23491125
H       50.59416647      48.27815730      51.40238754
H       47.93668372      48.56143006      51.25892188
H       47.10068346      50.35082083      50.16228813
H       48.22183446      51.70200498      48.54441951
H       50.87500207      51.49927564      48.57779589
