15
Lattice="100.0 0.0 0.0 0.0 100.0 0.0 0.0 0.0 100.0" Properties=species:S:1:pos:R:3 Energy=-170039.96875 Energy_pyscf=-170042.27943087582 pbc="F F F"
C       52.54176345      49.92892335      50.16043804
C       51.02168587      49.97581732      50.14720117
C       50.19172404      49.14879733      50.93376540
C       48.81579549      49.07301852      50.73710358
C       48.10930960      50.07440612      49.87390314
C       48.92708990      50.97984106      49.18485153
C       50.33192255      50.91837378      49.23812966
H       53.05696467      49.87091044      49.15768213
H       53.01272496      50.78911201      50.72885360
H       53.01399616      49.10224660      50.67977787
H       50.66266771      48.56701367      51.69873899
H       48.15457624      48.25897136      51.02728400
H       47.03390333      50.03575391      49.76372069
H       48.53392496      51.66022070      48.42555316
H       50.97180479      51.42928832      48.51344474
