15
Lattice="100.0 0.0 0.0 0.0 100.0 0.0 0.0 0.0 100.0" Properties=species:S:1:pos:R:3 Energy=-170042.53125 Energy_pyscf=-170042.77662997783 pbc="F F F"
C       52.46146527      49.99569018      50.20529825
C       50.89131914      49.95320850      50.02897114
C       50.11736906      49.05508919      50.73149779
C       48.74491993      49.17755101      50.68849616
C       48.09408403      50.03318555      49.81669581
C       48.85275707      50.87918758      48.95064813
C       50.21541262      50.87706849      49.22599802
H       52.76203682      48.97268188      50.25897896
H       52.95661219      50.52989354      49.38177767
H       52.70242627      50.57622733      51.13747905
H       50.56861596      48.44698301      51.40458453
H       48.14459102      48.62707066      51.33245720
H       47.03129467      49.98876110      49.63582997
H       48.35335252      51.62444012      48.31476974
H       50.81979748      51.59741581      48.63211049
