15
Lattice="100.0 0.0 0.0 0.0 100.0 0.0 0.0 0.0 100.0" Properties=species:S:1:pos:R:3 Energy=-170036.140625 Energy_pyscf=-170037.54015036346 pbc="F F F"
C       52.35867738      50.07120273      50.38715726
C       50.82961042      49.97637388      50.07816598
C       50.09298359      49.00586066      50.87355442
C       48.64411673      49.15177511      50.74105649
C       47.98815938      50.11385066      49.90724538
C       48.75279281      50.95908456      49.10203082
C       50.13683560      50.87911466      49.20951321
H       52.75395073      49.00877520      50.27379315
H       52.90111241      50.50780692      49.55047414
H       52.58594232      50.68837875      51.27374223
H       50.71950246      48.27172050      51.38488722
H       48.04926143      48.62474790      51.43993494
H       46.85552784      50.28669271      50.09379079
H       48.32002978      51.82921255      48.46531247
H       50.79642272      51.56737260      48.63907017
