15
Lattice="100.0 0.0 0.0 0.0 100.0 0.0 0.0 0.0 100.0" Properties=species:S:1:pos:R:3 Energy=-170039.5625 Energy_pyscf=-170042.152384435 pbc="F F F"
C       52.54845400      49.97741489      50.25293635
C       51.00993840      49.99385097      50.07908221
C       50.24003784      49.17596592      50.98006702
C       48.88063976      49.05809829      50.67768932
C       48.22565777      50.09918965      49.85509080
C       48.97337967      50.96334370      49.12449553
C       50.37097936      50.85603211      49.17501805
H       52.90274195      50.09595415      49.22795239
H       52.79415139      50.85994609      50.82344609
H       52.87386207      49.02290400      50.64939313
H       50.80882818      48.46925736      51.64013180
H       48.22605580      48.31489078      51.16355716
H       47.05075380      49.96492585      49.79246334
H       48.49005042      51.71496529      48.50419484
H       50.90925908      51.62746809      48.60988102
