15
Lattice="100.0 0.0 0.0 0.0 100.0 0.0 0.0 0.0 100.0" Properties=species:S:1:pos:R:3 Energy=-170038.890625 Energy_pyscf=-170037.64633235068 pbc="F F F"
C       52.32629368      50.16726583      50.22365995
C       50.80799307      50.03690852      50.12950215
C       49.95501552      49.14044704      50.99058644
C       48.55474832      49.19521055      50.85630167
C       47.98273454      50.09645651      49.94967826
C       48.74712431      50.99589005      49.13289012
C       50.17840826      50.95099884      49.25907012
H       52.61205055      51.17680893      50.25124604
H       52.47308239      49.73209771      51.24984453
H       53.02023405      49.55988569      49.57545654
H       50.47430325      48.30532695      51.53028214
H       47.88427288      48.57674618      51.49660846
H       46.87612437      49.99521446      49.57785487
H       48.24761170      51.75668991      48.55707711
H       50.73007236      51.54076468      48.56347835
