15
Lattice="100.0 0.0 0.0 0.0 100.0 0.0 0.0 0.0 100.0" Properties=species:S:1:pos:R:3 Energy=-170040.421875 Energy_pyscf=-170039.96561630702 pbc="F F F"
C       52.48464807      49.88038709      50.20485681
C       50.98684973      49.93841343      50.07489400
C       50.22449753      49.15896594      50.97778694
C       48.83714950      49.13515145      50.67244168
C       48.26027260      50.07620271      49.86063169
C       49.00942008      50.93766313      49.03223673
C       50.35528481      50.89331882      49.11651835
H       52.88375799      49.88513545      49.13810861
H       52.76452036      50.81916791      50.66499992
H       52.90616845      49.00309285      50.73011936
H       50.77726801      48.45892496      51.64574437
H       48.17698374      48.42226401      51.21693204
H       47.11566015      49.90770154      49.74252965
H       48.43527830      51.67683201      48.47661452
H       51.04916496      51.60924015      48.73796475
