15
Lattice="100.0 0.0 0.0 0.0 100.0 0.0 0.0 0.0 100.0" Properties=species:S:1:pos:R:3 Energy=-170017.0 Energy_pyscf=-170014.63955598732 pbc="F F F"
C       52.40329138      49.93948845      50.46219712
C       50.90167137      50.00956834      50.36069084
C       50.14463598      49.02121973      50.99083944
C       48.72246103      49.11831543      50.92718131
C       48.01527325      50.00085598      49.98691151
C       48.83297366      50.75496676      49.26080636
C       50.17163522      50.78496499      49.35264370
H       53.04742192      50.33844570      51.25697636
H       52.78839317      48.86104541      50.70049518
H       52.83303514      50.21003913      49.53102755
H       50.60318984      48.12296193      51.32681320
H       48.12259616      48.32401075      51.35233562
H       47.02621020      50.07648152      49.91268059
H       48.19190599      51.30892879      48.47137376
H       50.66369313      51.72753261      48.76356099
