15
Lattice="100.0 0.0 0.0 0.0 100.0 0.0 0.0 0.0 100.0" Properties=species:S:1:pos:R:3 Energy=-170040.578125 Energy_pyscf=-170042.42999176573 pbc="F F F"
C       52.48403698      49.84355759      50.01335510
C       50.93432785      49.88527634      49.94083267
C       50.15475270      49.08613052      50.79250255
C       48.73211235      49.01805590      50.58342356
C       48.15108593      49.84996091      49.70280099
C       48.91517223      50.83479058      49.05464471
C       50.29323916      50.74856562      49.04130959
H       52.95576775      48.88650289      49.55900389
H       52.82517580      50.73496952      49.43365243
H       52.89376435      49.96658718      50.98189334
H       50.65410940      48.38952265      51.43880180
H       48.08278959      48.43327070      51.23594451
H       47.03379456      50.07870889      49.70744150
H       48.36607417      51.66345991      48.60119294
H       51.06057749      51.38602990      48.50189995
