15
Lattice="100.0 0.0 0.0 0.0 100.0 0.0 0.0 0.0 100.0" Properties=species:S:1:pos:R:3 Energy=-170038.453125 Energy_pyscf=-170031.59175477162 pbc="F F F"
C       52.43998297      49.97037866      50.07698674
C       50.93428187      49.98208986      50.07719513
C       50.07881582      49.01018590      50.83136621
C       48.72647188      49.08881863      50.55224739
C       48.08280770      50.01155824      49.75514816
C       48.85432368      50.82533928      48.88278932
C       50.26400558      50.74055838      49.09116137
H       52.68311785      51.11223237      50.11161492
H       52.62614417      49.36413990      50.90526844
H       52.80315529      49.47747273      49.14477637
H       50.48251027      48.30830101      51.66004101
H       47.89474569      48.58366930      51.20239627
H       46.94306046      50.03155380      49.69054071
H       48.38107992      51.54724708      48.22836060
H       50.76758512      51.41359738      48.39408461
