15
Lattice="100.0 0.0 0.0 0.0 100.0 0.0 0.0 0.0 100.0" Properties=species:S:1:pos:R:3 Energy=-170038.328125 Energy_pyscf=-170037.5880676672 pbc="F F F"
C       52.34850184      49.94908130      50.03478966
C       50.88014907      49.83025075      49.99012466
C       50.09135465      49.14504236      50.86310508
C       48.71486933      49.03406264      50.55475379
C       48.09285727      49.95590563      49.71499103
C       48.84603313      50.87542333      48.96573292
C       50.23132788      50.69174912      49.00488283
H       52.56900782      50.98687058      50.11567874
H       52.57782953      49.45752769      50.97825339
H       52.92478362      49.61841445      49.15060121
H       50.45993596      48.41468420      51.55321672
H       48.04364714      48.50882900      51.25005231
H       46.97119820      50.20240325      49.65061695
H       48.35163003      51.61461513      48.32011959
H       50.87825772      51.29041200      48.43650832
