15
Lattice="100.0 0.0 0.0 0.0 100.0 0.0 0.0 0.0 100.0" Properties=species:S:1:pos:R:3 Energy=-170039.3125 Energy_pyscf=-170039.12136200964 pbc="F F F"
C       52.52557740      49.81820422      49.99962163
C       51.07996097      49.92673714      49.91537453
C       50.28428327      49.16972052      50.85884134
C       48.92951139      49.12736775      50.69236840
C       48.22572478      49.82400719      49.69580644
C       49.00531736      50.80906294      48.96845731
C       50.37969656      50.80838240      49.12717120
H       53.18723517      50.24147228      49.19618458
H       52.74992069      50.43447372      50.90988483
H       52.88079783      48.83455988      50.14000264
H       50.73543126      48.46439079      51.54044616
H       48.32890145      48.55643408      51.39980132
H       47.14725460      50.03880526      49.57808011
H       48.58607336      51.56993393      48.22139621
H       50.92951191      51.52868292      48.41007471
