15
Lattice="100.0 0.0 0.0 0.0 100.0 0.0 0.0 0.0 100.0" Properties=species:S:1:pos:R:3 Energy=-170025.546875 Energy_pyscf=-170024.01527373685 pbc="F F F"
C       52.30828934      49.67725343      50.29445922
C       50.76764876      49.93181882      50.06346047
C       49.91667197      49.22783511      50.89055937
C       48.50495469      49.02801341      50.79510266
C       47.96476024      49.83338364      49.88249565
C       48.71620933      50.77801653      49.06291860
C       50.09426588      50.82878684      49.22827877
H       52.91925308      50.62211338      50.17832380
H       52.41612912      49.07596797      51.18039515
H       52.56215236      49.00551026      49.46129278
H       50.44186366      48.62234420      51.67573162
H       48.06669641      48.09703904      50.95170933
H       46.89795203      49.79257538      49.65356195
H       48.25337284      51.55575988      48.26359861
H       50.71340582      51.53643202      48.55284804
