15
Lattice="100.0 0.0 0.0 0.0 100.0 0.0 0.0 0.0 100.0" Properties=species:S:1:pos:R:3 Energy=-170041.8125 Energy_pyscf=-170039.7583099036 pbc="F F F"
C       52.41401654      49.90718897      50.39359076
C       50.93952973      49.92743222      50.19309810
C       50.14656901      49.08896049      50.89075259
C       48.69177808      49.12045046      50.96780481
C       48.04925451      49.93013633      50.08005955
C       48.86794273      50.77142779      49.28046557
C       50.26280259      50.93207471      49.38753370
H       52.80310663      50.31080601      51.36662170
H       52.69032251      48.80445934      50.37263989
H       52.89644200      50.39034711      49.56940333
H       50.54840121      48.21419898      51.45209539
H       48.02119807      48.39861364      51.48277131
H       46.97009644      49.87280044      49.93670438
H       48.30569210      51.23096446      48.40314035
H       50.80590543      51.66837702      48.85118640
