15
Lattice="100.0 0.0 0.0 0.0 100.0 0.0 0.0 0.0 100.0" Properties=species:S:1:pos:R:3 Energy=-170023.734375 Energy_pyscf=-170026.79351648077 pbc="F F F"
C       52.28749053      49.64258167      50.27955770
C       50.82095588      49.93683493      50.14989730
C       50.05650035      49.00679301      50.87663183
C       48.63843831      48.90068369      50.86004493
C       48.04907012      49.73470850      49.95802097
C       48.82947908      50.68066361      49.13762239
C       50.17556215      50.83834803      49.26036825
H       52.74005188      50.43585178      50.85514815
H       52.34326716      48.69886310      50.77525668
H       52.88055313      49.53577055      49.34128258
H       50.74292376      48.56830281      51.61540281
H       48.15510743      48.26723444      51.63854241
H       47.12278531      49.63656082      49.51973885
H       48.38824580      51.43295034      48.29856247
H       50.69580019      51.65264473      48.69980262
