15
Lattice="100.0 0.0 0.0 0.0 100.0 0.0 0.0 0.0 100.0" Properties=species:S:1:pos:R:3 Energy=-170031.546875 Energy_pyscf=-170032.12860964975 pbc="F F F"
C       52.39793446      49.91408524      50.39136560
C       50.86528428      49.89560668      50.13290821
C       50.12911238      49.02639846      50.82906753
C       48.70774705      49.10364467      50.96862034
C       48.01924520      49.97334294      50.05163769
C       48.78989655      50.77608035      49.33340283
C       50.17060895      50.90155860      49.39491387
H       52.61830623      50.31894859      51.40107197
H       52.88325861      48.84681296      50.43701037
H       53.16263322      50.28768742      49.59605516
H       50.58591923      48.28412460      51.43806406
H       48.09623044      48.44284175      51.48533672
H       46.94170835      49.87233391      49.92460101
H       48.33894416      51.38398494      48.50237600
H       50.72212316      51.58263591      48.75357101
