15
Lattice="100.0 0.0 0.0 0.0 100.0 0.0 0.0 0.0 100.0" Properties=species:S:1:pos:R:3 Energy=-170035.296875 Energy_pyscf=-170034.72251161892 pbc="F F F"
C       52.45306599      50.04512665      50.19272418
C       50.98451324      50.07742630      50.15470130
C       50.27118046      49.12387427      50.93975275
C       48.85938715      49.13589594      50.67738257
C       48.17356322      50.19372546      49.93826499
C       49.01578225      51.00304817      49.15359079
C       50.36624749      50.83006643      49.24355504
H       52.95509489      50.17184362      49.19576199
H       52.89999024      50.81867903      50.94016925
H       52.72189720      49.10997628      50.67704492
H       50.83881857      48.44027473      51.57196952
H       48.25967806      48.29607894      51.06176496
H       47.07117836      49.93098255      49.83732979
H       48.55107283      51.68193795      48.51670069
H       50.96710968      51.38400342      48.49639594
