15
Lattice="100.0 0.0 0.0 0.0 100.0 0.0 0.0 0.0 100.0" Properties=species:S:1:pos:R:3 Energy=-170036.96875 Energy_pyscf=-170034.57950541814 pbc="F F F"
C       52.61617310      49.88178634      49.96613244
C       51.07937641      49.84152474      50.00629130
C       50.20334549      49.15028000      50.87754399
C       48.85639670      49.14810403      50.60688792
C       48.15876470      49.85117483      49.63364576
C       48.96426062      50.76013628      49.00647019
C       50.42513318      50.79658403      49.15249391
H       53.02231001      50.36294938      49.13297927
H       53.04994083      50.41845414      50.81689165
H       53.04053264      48.86048284      50.14424593
H       50.54522464      48.38655184      51.67510553
H       48.39753234      48.62415451      51.42678881
H       47.07050104      49.99866077      49.46816624
H       48.57102425      51.54096302      48.29414901
H       50.94791329      51.48880003      48.47218914
