15
Lattice="100.0 0.0 0.0 0.0 100.0 0.0 0.0 0.0 100.0" Properties=species:S:1:pos:R:3 Energy=-170043.15625 Energy_pyscf=-170041.19229741688 pbc="F F F"
C       52.53278567      50.08343507      50.15495380
C       51.03494839      50.07354647      50.07329648
C       50.26335807      49.21892936      50.84306237
C       48.81755703      49.20833350      50.72957805
C       48.28330879      50.05948811      49.73595979
C       49.03146377      50.98815018      49.07977851
C       50.37781892      51.02696713      49.24550193
H       53.07107122      50.52529524      49.21082125
H       52.90781580      50.67774049      51.11350241
H       53.08870342      49.06329037      50.29410424
H       50.77420686      48.74515082      51.65447085
H       48.12908926      48.46353167      51.19240016
H       47.23330124      50.05868700      49.61334267
H       48.49884020      51.54334197      48.33033767
H       51.05654433      51.65779600      48.68767548
