15
Lattice="100.0 0.0 0.0 0.0 100.0 0.0 0.0 0.0 100.0" Properties=species:S:1:pos:R:3 Energy=-170037.578125 Energy_pyscf=-170035.99349775084 pbc="F F F"
C       52.52188437      49.90160149      50.13355719
C       50.90922359      49.89718929      50.18366248
C       50.18258026      49.04890995      50.94985629
C       48.71638612      49.02410039      50.71738386
C       48.13329230      50.02360639      49.87956028
C       48.91309585      50.80996262      49.04064860
C       50.28536445      50.78084393      49.25517538
H       52.70404982      50.95494453      49.72203331
H       52.85420017      49.61782616      51.13695175
H       52.94245910      49.31084413      49.26960007
H       50.62443618      48.16048577      51.53396428
H       48.04092448      48.41264839      51.28868417
H       47.00399586      50.16371134      49.96480853
H       48.52643217      51.53771313      48.33352513
H       50.86061820      51.39111658      48.51341208
