15
Lattice="100.0 0.0 0.0 0.0 100.0 0.0 0.0 0.0 100.0" Properties=species:S:1:pos:R:3 Energy=-170038.75 Energy_pyscf=-170040.6418719963 pbc="F F F"
C       52.45073081      50.20686719      50.20786425
C       50.89541002      50.12482578      50.08742639
C       50.13158942      49.17808159      50.83274963
C       48.70316472      49.30534560      50.83549702
C       47.99701654      50.22000920      49.92495659
C       48.83631500      51.03046983      49.20091092
C       50.24299678      51.06107714      49.32467312
H       52.86754499      49.84828564      49.23934289
H       52.61087623      51.25082994      50.34317305
H       52.86132178      49.56580556      51.00027245
H       50.43393371      48.41106614      51.48384953
H       48.08645738      48.75303653      51.56231315
H       46.96912948      50.29798177      49.75453345
H       48.37256699      51.54296316      48.38676956
H       50.77838206      51.81346033      48.70928399
