15
Lattice="100.0 0.0 0.0 0.0 100.0 0.0 0.0 0.0 100.0" Properties=species:S:1:pos:R:3 Energy=-170033.453125 Energy_pyscf=-170031.3648689245 pbc="F F F"
C       52.31762626      50.02119282      50.28673731
C       50.83695777      49.91222448      50.10971017
C       50.12476076      48.98622276      50.81152205
C       48.66358922      49.26902280      50.78065929
C       48.08027620      50.23540680      50.01003189
C       48.81898080      50.91840386      49.07754676
C       50.19737766      50.78520456      49.16516474
H       52.91884770      49.09203416      50.30348436
H       52.77683034      50.79532255      49.51936516
H       52.26093668      50.61350480      51.25982597
H       50.59799653      48.21069273      51.41648562
H       47.99148900      48.58853080      51.29483803
H       47.03714618      50.40617427      50.27319854
H       48.17741558      51.68624163      48.48236853
H       50.96828091      51.37381676      48.66835922
