15
Lattice="100.0 0.0 0.0 0.0 100.0 0.0 0.0 0.0 100.0" Properties=species:S:1:pos:R:3 Energy=-170031.640625 Energy_pyscf=-170031.56471528654 pbc="F F F"
C       52.48302157      50.15472553      50.30554071
C       50.94729247      50.02238922      50.22131626
C       50.17621176      48.99422554      50.95541171
C       48.69583059      49.25842617      50.97558603
C       48.13228394      50.11353967      50.02250499
C       48.92303862      50.92804775      49.15861601
C       50.28920295      50.78938930      49.18435479
H       52.69522397      51.20017018      50.68508547
H       53.08283296      49.37009853      50.80044864
H       53.08803701      50.15662301      49.37069272
H       50.59810638      48.28668038      51.71097614
H       48.09798295      48.53678077      51.49681217
H       47.08421047      50.07451666      49.75790419
H       48.54428063      51.66526748      48.46997341
H       50.80578559      51.48424648      48.55052998
