15
Lattice="100.0 0.0 0.0 0.0 100.0 0.0 0.0 0.0 100.0" Properties=species:S:1:pos:R:3 Energy=-170038.375 Energy_pyscf=-170040.7309015426 pbc="F F F"
C       52.26603886      49.77643566      50.19517344
C       50.79601570      49.88672834      49.93133171
C       50.02031062      49.04058143      50.68534317
C       48.60918799      49.04060353      50.73682120
C       47.97207180      49.89859455      49.76950115
C       48.72967267      50.75917401      48.97715179
C       50.22522164      50.75786989      49.02264565
H       52.55692940      50.60468381      50.81388211
H       52.40793402      48.87613077      50.71267107
H       52.89024204      49.79737347      49.27018853
H       50.45884438      48.41551763      51.54815714
H       48.02489105      48.24941409      51.34391314
H       46.88488875      49.80806333      49.54486888
H       48.25592082      51.51932514      48.37758126
H       50.88463427      51.50737631      48.51494781
