15
Lattice="100.0 0.0 0.0 0.0 100.0 0.0 0.0 0.0 100.0" Properties=species:S:1:pos:R:3 Energy=-170033.90625 Energy_pyscf=-170035.42149633454 pbc="F F F"
C       52.28406369      49.76098295      50.13959566
C       50.78373912      49.83622976      49.95551783
C       50.00797381      49.04663214      50.77044285
C       48.63932275      49.03123287      50.64362466
C       47.98347665      49.81196630      49.70153105
C       48.70118427      50.74488705      49.01868892
C       50.16141920      50.86478025      49.20908657
H       52.63757460      50.61812110      50.58047781
H       52.39821794      48.90636550      50.86082428
H       52.96346657      49.73111455      49.30130111
H       50.44154013      48.38012200      51.54261899
H       47.94410443      48.42536737      51.16264007
H       46.96034348      49.71434196      49.62818584
H       48.23469416      51.56095110      48.38118719
H       50.81510698      51.47207089      48.56505471
