15
Lattice="100.0 0.0 0.0 0.0 100.0 0.0 0.0 0.0 100.0" Properties=species:S:1:pos:R:3 Energy=-170035.0 Energy_pyscf=-170034.9962850593 pbc="F F F"
C       52.48906596      49.99440306      50.30301566
C       50.92894687      50.14624660      50.37964878
C       50.14967629      49.26401395      51.11631614
C       48.74536372      49.22944691      50.90613567
C       48.14724630      50.20390182      50.10884389
C       48.91491194      50.96172460      49.17957101
C       50.26609956      50.95427923      49.30059032
H       52.77513514      50.33365340      49.29165271
H       52.91758391      50.67469855      50.98656759
H       52.87523624      49.02386057      50.64589720
H       50.70341267      48.44826001      51.62896728
H       48.10846212      48.57338508      51.54025356
H       47.16330062      50.35457262      49.89713824
H       48.46831847      51.58188055      48.39892889
H       50.87188656      51.57466466      48.71984543
