15
Lattice="100.0 0.0 0.0 0.0 100.0 0.0 0.0 0.0 100.0" Properties=species:S:1:pos:R:3 Energy=-170035.609375 Energy_pyscf=-170037.8589547103 pbc="F F F"
C       52.42948427      49.87480452      50.31174348
C       50.96912460      49.97969995      50.22089783
C       50.15914284      49.08391307      50.94528385
C       48.79239400      49.06007219      50.88261433
C       48.18773120      49.93276900      49.98710202
C       48.94280706      50.79703541      49.17036744
C       50.37695758      50.94267963      49.37374311
H       52.91119742      49.35590538      49.52755221
H       52.85834726      50.96063020      50.43330168
H       52.61295984      49.27513177      51.23583078
H       50.79291210      48.43707853      51.47491193
H       48.13263373      48.59592253      51.57909839
H       47.03960932      49.94035194      49.84299933
H       48.41595282      51.40057694      48.43392094
H       51.11882325      51.39317977      48.65842705
