15
Lattice="100.0 0.0 0.0 0.0 100.0 0.0 0.0 0.0 100.0" Properties=species:S:1:pos:R:3 Energy=-170035.046875 Energy_pyscf=-170034.233256452 pbc="F F F"
C       52.52591657      50.15860936      50.19280332
C       51.03572081      49.96615363      50.04590975
C       50.25548090      49.17646044      50.84863279
C       48.86919831      49.21802030      50.71792302
C       48.23032444      50.17653675      49.86433170
C       48.94056187      50.96004675      49.04684454
C       50.36672072      50.96322524      49.20319761
H       53.09826836      50.44781948      49.25945307
H       52.84161393      50.73388701      51.01515283
H       52.99254518      49.19078570      50.41383539
H       50.67568844      48.44995208      51.60605683
H       48.27342899      48.34290317      51.06342040
H       47.11019130      50.27567300      49.58927704
H       48.54195310      51.56962434      48.31994057
H       51.01852728      51.48230733      48.49341313
