15
Lattice="100.0 0.0 0.0 0.0 100.0 0.0 0.0 0.0 100.0" Properties=species:S:1:pos:R:3 Energy=-170039.421875 Energy_pyscf=-170040.35610549283 pbc="F F F"
C       52.59482382      50.18561463      50.28627480
C       51.06895349      50.09073848      50.15682867
C       50.26379535      49.26212482      50.92948318
C       48.90332369      49.23651874      50.76013282
C       48.27334713      50.14950215      49.87408474
C       49.03420202      50.96521609      49.03906432
C       50.47937648      51.03600524      49.27307413
H       52.99748920      50.73313194      49.32086218
H       52.91507472      50.55962899      51.27096127
H       53.01473694      49.16220300      50.16850245
H       50.63691186      48.55483368      51.71028157
H       48.47633850      48.40122244      51.24664025
H       47.14817247      50.09908825      49.87214717
H       48.57315160      51.78543762      48.39708447
H       51.03648170      51.54562641      48.51223544
