12
Lattice="100.0 0.0 0.0 0.0 100.0 0.0 0.0 0.0 100.0" Properties=species:S:1:pos:R:3 Energy=-259808.10326975997 pbc="F F F"
C       51.41737223      50.21149274      49.85159056
C       51.04030169      48.88291886      49.93139878
N       49.82507928      48.41145650      50.28323540
C       48.70847183      49.22590633      50.12986487
N       49.04147731      50.58417753      50.06879365
C       50.29111701      51.33681666      49.98337987
O       47.56422462      48.81018982      50.03097312
O       50.16918620      52.49554420      49.72539183
H       51.79447644      48.01942174      49.74180360
H       49.48237639      47.50445580      50.17540111
H       48.20293620      51.11665474      50.13601824
H       52.43577538      50.46249783      49.71676460
