12
Lattice="100.0 0.0 0.0 0.0 100.0 0.0 0.0 0.0 100.0" Properties=species:S:1:pos:R:3 Energy=-259808.03964373993 pbc="F F F"
C       51.41108932      50.28296481      49.85833620
C       51.11981188      48.90792848      50.06763476
N       49.80675349      48.56954482      50.39233505
C       48.76262739      49.33376595      50.19613843
N       48.98752761      50.61446913      50.12370388
C       50.21190342      51.24121411      49.97302970
O       47.58719284      48.91185644      50.11299218
O       50.16648795      52.44000332      49.92806496
H       51.84212785      48.11017761      50.33282408
H       49.55062665      47.55999668      50.46773413
H       48.23344219      51.32811499      50.15633620
H       52.41280716      50.52920751      49.53226587
