12
Lattice="100.0 0.0 0.0 0.0 100.0 0.0 0.0 0.0 100.0" Properties=species:S:1:pos:R:3 Energy=-259807.71013729082 pbc="F F F"
C       51.36850917      50.31335898      49.83418542
C       51.07890890      48.91219928      50.07459758
N       49.77194909      48.44428553      50.06663317
C       48.73855492      49.28215270      50.02474638
N       48.98894424      50.59695485      50.18591746
C       50.19609976      51.32984661      49.73741871
O       47.58258903      48.83018342      50.06927484
O       50.28644680      52.55619220      49.74138624
H       51.94848970      48.20730844      50.16477583
H       49.46137465      47.44380780      49.99764014
H       48.17950242      51.13523875      50.26258129
H       52.41741097      50.63962372      49.99996810
