12
Lattice="100.0 0.0 0.0 0.0 100.0 0.0 0.0 0.0 100.0" Properties=species:S:1:pos:R:3 Energy=-259810.28127573815 pbc="F F F"
C       51.44285779      50.23472748      49.85747328
C       51.09721576      48.88715869      49.92083984
N       49.76388962      48.46664712      50.03299083
C       48.69886216      49.28359002      50.02242074
N       48.89820165      50.63863983      50.02752789
C       50.20054868      51.23452330      49.80984580
O       47.62222218      48.74560381      50.04037439
O       50.26630309      52.44708785      49.64753517
H       51.69286052      47.97675250      49.67802048
H       49.55282385      47.55291215      50.35246483
H       48.07257953      51.21864196      49.89000350
H       52.37777782      50.72769352      50.02459853
