12
Lattice="100.0 0.0 0.0 0.0 100.0 0.0 0.0 0.0 100.0" Properties=species:S:1:pos:R:3 Energy=-259808.83723270413 pbc="F F F"
C       51.44202371      50.25960863      49.85140589
C       51.11549362      48.90529732      49.90612685
N       49.71819980      48.46662623      49.88154358
C       48.60940899      49.18521275      49.92056427
N       48.96115319      50.51280406      49.68022621
C       50.23367071      51.21559349      49.78512615
O       47.50731694      48.77041709      50.21966521
O       50.21897912      52.47831735      49.70278806
H       51.74693060      48.01610393      50.04297332
H       49.46497926      47.52168265      50.38832434
H       48.12158293      51.08205617      49.61167566
H       52.49268306      50.62933754      49.76662694
