12
Lattice="100.0 0.0 0.0 0.0 100.0 0.0 0.0 0.0 100.0" Properties=species:S:1:pos:R:3 Energy=-259816.73220290357 pbc="F F F"
C       51.37864659      50.34042631      49.86211621
C       51.08531547      48.95564924      50.01772597
N       49.75743920      48.42411785      49.94592956
C       48.65235222      49.25897036      49.98958732
N       48.98093089      50.62210331      49.89719116
C       50.25647441      51.29250474      49.78158194
O       47.51421270      48.83036727      50.19039823
O       50.21526153      52.50594615      49.74400370
H       51.71677743      48.02458875      50.13685769
H       49.59199487      47.49405385      50.25599630
H       48.08634673      51.24008598      49.88091954
H       52.48578730      50.68817803      49.99172781
