12
Lattice="100.0 0.0 0.0 0.0 100.0 0.0 0.0 0.0 100.0" Properties=species:S:1:pos:R:3 Energy=-259808.35525844828 pbc="F F F"
C       51.35180712      50.33460463      50.04302963
C       51.12018599      48.99618701      50.06687237
N       49.84394715      48.44653342      50.14966581
C       48.74255320      49.33310881      50.25289137
N       49.02954564      50.62018959      50.10588599
C       50.19205500      51.33607359      49.95805507
O       47.57886893      48.96238342      50.20028189
O       50.25319182      52.52677402      49.82294398
H       51.63943332      48.03817898      49.94261710
H       49.62718760      47.47322598      49.94630548
H       48.20844151      51.21490275      50.22481472
H       52.42113107      50.59041081      49.74710863
