12
Lattice="100.0 0.0 0.0 0.0 100.0 0.0 0.0 0.0 100.0" Properties=species:S:1:pos:R:3 Energy=-259815.0526506531 pbc="F F F"
C       51.35070960      50.28295769      49.86538641
C       51.02049487      48.98585959      49.97466929
N       49.78439468      48.40935094      50.23845927
C       48.71778554      49.22287710      50.12544049
N       48.97609159      50.56608805      50.27854066
C       50.28710846      51.31901992      49.90989103
O       47.59400430      48.77618513      49.97602865
O       50.31183027      52.50407942      49.67049717
H       51.80317322      48.18543520      49.87197437
H       49.62130450      47.49592058      49.83083287
H       48.12181491      51.07240563      50.36040111
H       52.40599570      50.43685665      49.63959889
