12
Lattice="100.0 0.0 0.0 0.0 100.0 0.0 0.0 0.0 100.0" Properties=species:S:1:pos:R:3 Energy=-259806.5628290042 pbc="F F F"
C       51.35604985      50.27252013      50.04738262
C       51.01946960      48.91665221      50.03711553
N       49.78973028      48.41138540      49.80272652
C       48.72563285      49.33859816      50.11285038
N       48.99408420      50.61175780      50.08736306
C       50.21710374      51.26306915      49.91161604
O       47.59465586      48.83830076      50.17315688
O       50.16685705      52.44339168      49.57233127
H       51.78178067      48.11724327      50.19677287
H       49.61196235      47.55660832      50.42766873
H       48.08883885      51.17793560      50.08771665
H       52.40534414      50.46316339      50.16666566
