12
Lattice="100.0 0.0 0.0 0.0 100.0 0.0 0.0 0.0 100.0" Properties=species:S:1:pos:R:3 Energy=-259794.53469736018 pbc="F F F"
C       51.39293941      50.21618529      49.88740335
C       51.12386452      48.87553667      49.94336227
N       49.78072279      48.53129604      50.04364335
C       48.73654956      49.38761656      50.09298556
N       49.06135240      50.66705175      50.53150673
C       50.17602514      51.28664256      49.90933296
O       47.55474251      49.05174014      49.77320877
O       49.91875172      52.43486812      49.40205424
H       51.97336721      48.12686965      50.07838801
H       49.36186573      47.56513188      50.03805518
H       48.20791717      51.29934751      50.59794576
H       52.44525749      50.73829440      49.87406677
