12
Lattice="100.0 0.0 0.0 0.0 100.0 0.0 0.0 0.0 100.0" Properties=species:S:1:pos:R:3 Energy=-259805.65277186708 pbc="F F F"
C       51.41543807      50.29406843      50.16795847
C       51.15537829      49.00969408      49.97611927
N       49.95173745      48.45458546      50.09980172
C       48.69020038      49.17833041      50.12306644
N       48.99182112      50.65647623      49.96358204
C       50.29059664      51.24620754      50.00711105
O       47.58445653      48.71148040      50.38411771
O       50.49463976      52.46726133      49.79495188
H       51.99121820      48.30928127      49.71904285
H       50.03688996      47.53273867      50.19882318
H       48.18113620      51.20883815      49.61588229
H       52.41554347      50.66409185      49.99811901
