12
Lattice="100.0 0.0 0.0 0.0 100.0 0.0 0.0 0.0 100.0" Properties=species:S:1:pos:R:3 Energy=-259799.8842214731 pbc="F F F"
C       51.42419583      50.44160531      50.21359460
C       51.36751394      49.15629894      50.05877030
N       50.02879846      48.60896380      50.00280967
C       48.75970913      49.37870681      50.15451066
N       48.99713634      50.70095896      50.31611380
C       50.31447382      51.23499081      50.01758404
O       47.56869376      48.94651349      50.28585134
O       50.48395068      52.35343891      49.67525209
H       52.23153417      48.50727378      49.85899994
H       49.91708493      47.64656109      49.82232307
H       48.16887302      51.35467566      50.32474791
H       52.43130624      50.92006393      50.18241360
