12
Lattice="100.0 0.0 0.0 0.0 100.0 0.0 0.0 0.0 100.0" Properties=species:S:1:pos:R:3 Energy=-259809.17169885067 pbc="F F F"
C       51.41147971      50.27310892      49.82265155
C       51.11610814      48.97172438      49.96746989
N       49.83025898      48.46080670      50.11026109
C       48.75209057      49.27455409      50.06990810
N       48.97224354      50.49562108      49.65675818
C       50.20569174      51.16476071      49.82396174
O       47.57530383      48.89458738      50.23205865
O       50.26055326      52.41541962      49.92699522
H       51.84804302      48.08482292      50.16537511
H       49.58918373      47.58458038      50.43152227
H       48.01408202      50.93511727      49.60932136
H       52.42469617      50.63306030      49.56847773
