12
Lattice="100.0 0.0 0.0 0.0 100.0 0.0 0.0 0.0 100.0" Properties=species:S:1:pos:R:3 Energy=-259819.5976098988 pbc="F F F"
C       51.35049254      50.26867368      49.84445802
C       51.05089213      48.89999276      50.00335516
N       49.77515619      48.46276282      50.18783773
C       48.67468086      49.27920549      50.14367777
N       48.92751017      50.60282753      50.10195069
C       50.21247221      51.26964841      49.83458134
O       47.57195697      48.82406254      50.03473137
O       50.20424519      52.48502596      49.78053847
H       51.86187867      48.16145832      50.22040286
H       49.46297697      47.51497404      49.91601280
H       48.06352871      51.14016130      49.89533793
H       52.42804303      50.61119559      49.77959714
