12
Lattice="100.0 0.0 0.0 0.0 100.0 0.0 0.0 0.0 100.0" Properties=species:S:1:pos:R:3 Energy=-259812.6888563291 pbc="F F F"
C       51.44554332      50.27847495      49.84471918
C       51.09137160      48.93194113      49.91785322
N       49.78185367      48.49784217      50.04116983
C       48.68786205      49.31257836      50.01588178
N       48.90583722      50.66995918      50.00049435
C       50.21958332      51.27565090      49.80180657
O       47.61194309      48.76283861      50.04830224
O       50.28162359      52.46613892      49.66458914
H       51.66627381      48.06538047      49.67874807
H       49.51597923      47.53386108      50.33541086
H       48.05946411      51.25981435      49.91233894
H       52.38805691      50.75600246      50.01684426
