12
Lattice="100.0 0.0 0.0 0.0 100.0 0.0 0.0 0.0 100.0" Properties=species:S:1:pos:R:3 Energy=-259813.71842106356 pbc="F F F"
C       51.36213752      50.23288918      49.92527456
C       50.99475625      48.87706056      50.00053980
N       49.76897409      48.46747040      50.22169138
C       48.60915114      49.24191164      50.16084338
N       48.93625756      50.55960876      49.90825968
C       50.19394641      51.27435238      49.88131876
O       47.48458726      48.76016593      50.20430093
O       50.16760792      52.47942077      49.90073210
H       51.78540288      48.18429339      49.80972637
H       49.51945595      47.52057923      50.06294010
H       48.17638278      51.18612494      49.77830862
H       52.51541274      50.36138505      49.90706371
