12
Lattice="100.0 0.0 0.0 0.0 100.0 0.0 0.0 0.0 100.0" Properties=species:S:1:pos:R:3 Energy=-259809.33463852922 pbc="F F F"
C       51.41653199      50.36838125      50.19309501
C       51.06117955      49.03974529      49.94895500
N       49.82307768      48.48906479      50.03992205
C       48.67702765      49.31510483      50.16565799
N       49.00027717      50.65210384      50.21721832
C       50.30054884      51.40047488      49.90908724
O       47.54051097      48.82437631      50.20304040
O       50.30212791      52.56333856      49.64911095
H       51.78160814      48.25904255      49.90299108
H       49.73760977      47.43666144      50.05073717
H       48.08125314      51.20714551      50.15844370
H       52.45948903      50.86463092      50.35088905
