12
Lattice="100.0 0.0 0.0 0.0 100.0 0.0 0.0 0.0 100.0" Properties=species:S:1:pos:R:3 Energy=-259811.83041789228 pbc="F F F"
C       51.39005215      50.23797846      50.00866056
C       51.13678474      48.85528091      49.93053318
N       49.81586441      48.48434189      50.11949601
C       48.68116354      49.22518428      50.08235338
N       48.90765991      50.56011206      49.85080701
C       50.24017685      51.23109688      49.93474794
O       47.61224992      48.73554396      50.26818566
O       50.33625583      52.47608172      49.79624954
H       51.83368093      47.93612239      49.76906563
H       49.70821338      47.52391828      49.90664453
H       48.11599508      51.13429951      49.86584365
H       52.38775008      50.67239148      49.73181434
