12
Lattice="100.0 0.0 0.0 0.0 100.0 0.0 0.0 0.0 100.0" Properties=species:S:1:pos:R:3 Energy=-259804.68401013562 pbc="F F F"
C       51.42238324      50.31686923      49.50694414
C       51.32310365      49.06387580      49.91534014
N       50.06798664      48.52086796      50.15718576
C       48.79547785      49.21005718      49.94373939
N       49.06279604      50.60465722      49.77938392
C       50.35797071      51.18256960      49.70089507
O       47.62756128      48.69171147      49.95739915
O       50.66850412      52.35569570      49.81093819
H       52.21484943      48.52065776      50.22683139
H       49.87141364      47.64430430      50.73359914
H       48.24045878      51.26703698      49.84758765
H       52.37243872      50.67090572      49.26640086
