12
Lattice="100.0 0.0 0.0 0.0 100.0 0.0 0.0 0.0 100.0" Properties=species:S:1:pos:R:3 Energy=-259812.674157283 pbc="F F F"
C       51.36227473      50.34503645      50.08748533
C       51.07943824      48.93642556      50.01272081
N       49.81360715      48.45576201      49.97277157
C       48.71312548      49.23325556      50.13241664
N       48.99012917      50.56028723      49.90325746
C       50.23129748      51.28724506      49.92359342
O       47.55842172      48.91353697      50.31667488
O       50.25664458      52.53610575      49.77154763
H       51.86984704      48.20271584      49.68332512
H       49.72649708      47.46389425      50.27009810
H       48.05506881      51.02835853      50.10592740
H       52.44157828      50.67204518      50.21997558
