12
Lattice="100.0 0.0 0.0 0.0 100.0 0.0 0.0 0.0 100.0" Properties=species:S:1:pos:R:3 Energy=-259797.99211646378 pbc="F F F"
C       51.50094738      50.10848237      49.72564741
C       51.15616918      48.79164977      49.92223805
N       49.92805682      48.45340791      50.29777351
C       48.79265405      49.09166796      50.02230472
N       49.09633243      50.49829668      49.74625595
C       50.44774078      51.19958212      49.82373487
O       47.72168235      48.59503762      50.13104310
O       50.39676028      52.41483422      49.91632790
H       51.79410992      47.96100735      50.03123976
H       49.71595301      47.58516578      50.73061290
H       48.34128232      51.18106561      49.63486483
H       52.27831765      50.66536130      49.26938710
