12
Lattice="100.0 0.0 0.0 0.0 100.0 0.0 0.0 0.0 100.0" Properties=species:S:1:pos:R:3 Energy=-259811.32493135033 pbc="F F F"
C       51.41057350      50.31837736      49.97316418
C       51.14514351      48.98930852      50.14638672
N       49.91246146      48.44536382      50.31482947
C       48.71802666      49.23969708      50.21718192
N       48.94921971      50.64546904      50.31773168
C       50.34618738      51.39931510      50.06056085
O       47.59378920      48.77339883      50.18814419
O       50.44096394      52.57244187      49.82173305
H       51.94972498      48.32273661      49.93946438
H       49.72452713      47.42755813      50.29559796
H       47.96575180      51.08323751      50.45342027
H       52.40621080      50.55582047      49.54657973
