12
Lattice="100.0 0.0 0.0 0.0 100.0 0.0 0.0 0.0 100.0" Properties=species:S:1:pos:R:3 Energy=-259811.53467891586 pbc="F F F"
C       51.42536639      50.45181735      50.03233421
C       51.23714052      49.16995752      50.04104763
N       49.93723090      48.56568519      50.13963484
C       48.73283337      49.30928909      50.18232038
N       49.07457898      50.67529192      50.14368575
C       50.31683729      51.29928013      49.95127248
O       47.61424827      48.88293514      50.21328069
O       50.51810553      52.52463481      49.78671931
H       52.11986319      48.47781151      50.09235465
H       49.90653172      47.47536519      49.95276519
H       48.36018499      51.44014005      50.06766112
H       52.38575173      50.82447081      50.10300779
