12
Lattice="100.0 0.0 0.0 0.0 100.0 0.0 0.0 0.0 100.0" Properties=species:S:1:pos:R:3 Energy=-259815.08821707056 pbc="F F F"
C       51.36469961      50.27721031      49.94730182
C       51.12245399      48.88482782      50.05673833
N       49.78318237      48.38595843      49.88293747
C       48.70325165      49.26025040      50.02873422
N       48.94410342      50.59687585      50.06547461
C       50.19284864      51.20418073      49.83533471
O       47.58011574      48.82984927      50.17531929
O       50.23092785      52.41116442      49.66216381
H       51.86489737      48.02484966      50.13734868
H       49.48251907      47.58883558      50.33062635
H       48.14803516      51.19086654      50.33783619
H       52.41988426      50.62669413      50.03194871
