12
Lattice="100.0 0.0 0.0 0.0 100.0 0.0 0.0 0.0 100.0" Properties=species:S:1:pos:R:3 Energy=-259813.18505864564 pbc="F F F"
C       51.37024477      50.24410364      50.04865928
C       51.09097297      48.89755013      50.10338592
N       49.81072171      48.40139570      50.22327253
C       48.77887329      49.22372858      50.23004285
N       49.01936578      50.54981923      49.84245827
C       50.26496574      51.27859256      49.94740922
O       47.65328901      48.84819072      50.38976177
O       50.27410878      52.52292485      50.03171590
H       51.80837049      48.02884299      50.08258399
H       49.50988875      47.47707515      50.29845709
H       48.18764172      51.08455006      49.61023823
H       52.34671099      50.60172116      50.25014690
