12
Lattice="100.0 0.0 0.0 0.0 100.0 0.0 0.0 0.0 100.0" Properties=species:S:1:pos:R:3 Energy=-259799.44785884966 pbc="F F F"
C       51.38024581      50.41173805      50.02114509
C       51.20335727      49.06886178      50.08927625
N       49.87368364      48.58366336      50.11744896
C       48.70107319      49.36459771      50.09033254
N       48.97788081      50.68601448      50.32320243
C       50.28657672      51.23023688      50.05722031
O       47.56025462      48.83890107      50.19541157
O       50.36010716      52.38120510      49.67679757
H       51.97858719      48.29821374      49.74958496
H       49.54739846      47.61879490      50.19353299
H       48.25499467      51.41464693      49.80135484
H       52.43974538      50.94627310      49.92875342
