12
Lattice="100.0 0.0 0.0 0.0 100.0 0.0 0.0 0.0 100.0" Properties=species:S:1:pos:R:3 Energy=-259811.7648826973 pbc="F F F"
C       51.36205746      50.27072492      49.70686073
C       51.01386782      48.98196592      49.97482211
N       49.78884581      48.50272469      49.91149172
C       48.65298954      49.25942665      49.95340628
N       48.91311339      50.58320834      49.99541254
C       50.18706539      51.20997363      49.65573230
O       47.56400959      48.74388741      49.98128915
O       50.31845188      52.48069985      49.64607923
H       51.69499512      48.17929531      50.15961904
H       49.57021961      47.51930015      49.79372179
H       48.08482811      51.19132349      50.35392077
H       52.43599041      50.57512710      49.69756888
