12
Lattice="100.0 0.0 0.0 0.0 100.0 0.0 0.0 0.0 100.0" Properties=species:S:1:pos:R:3 Energy=-259802.81601042775 pbc="F F F"
C       51.46940137      50.39247741      49.95502057
C       51.23912094      49.03442356      50.09307332
N       49.97833743      48.35475343      49.90278571
C       48.72111270      49.23021138      50.04546517
N       49.10882811      50.67042522      50.10583468
C       50.39099627      51.32210703      49.94346543
O       47.56850665      48.82698969      50.22040969
O       50.44441283      52.54523751      49.63278603
H       52.19753829      48.41029851      50.36721397
H       49.83401244      47.45476249      50.29066458
H       48.30288864      51.33310996      50.02278500
H       52.43149335      50.90814916      49.73529249
