12
Lattice="100.0 0.0 0.0 0.0 100.0 0.0 0.0 0.0 100.0" Properties=species:S:1:pos:R:3 Energy=-259812.46281090425 pbc="F F F"
C       51.41674710      50.22557992      49.77966355
C       51.12939503      48.91763693      49.85848337
N       49.83464905      48.49354562      50.10435331
C       48.77028345      49.22473955      50.03092209
N       48.99545626      50.57966354      49.82255143
C       50.22861171      51.21073105      49.80079359
O       47.67129922      48.71780849      50.04006222
O       50.41008461      52.46429398      49.72373789
H       51.80057861      48.02804518      49.79592305
H       49.65294777      47.53570602      50.56300302
H       48.12844549      51.10359230      49.92977886
H       52.32870078      50.75347669      49.43699698
