12
Lattice="100.0 0.0 0.0 0.0 100.0 0.0 0.0 0.0 100.0" Properties=species:S:1:pos:R:3 Energy=-259807.8431446815 pbc="F F F"
C       51.31359719      50.33575368      50.09822853
C       51.01228123      49.00075475      49.96601684
N       49.82610325      48.49637130      50.04909792
C       48.71518620      49.32107498      50.17325063
N       48.91576134      50.65059567      49.95809363
C       50.20892293      51.40496210      49.95794630
O       47.62477615      48.88474743      50.25726625
O       50.31868483      52.56710246      49.74273375
H       51.80377966      48.36280473      49.87658723
H       49.57520085      47.43289754      50.03574570
H       48.08959967      51.25439450      50.17326794
H       52.37522385      50.65849260      49.92102000
