12
Lattice="100.0 0.0 0.0 0.0 100.0 0.0 0.0 0.0 100.0" Properties=species:S:1:pos:R:3 Energy=-259809.89270088033 pbc="F F F"
C       51.46601311      50.29503342      50.09668298
C       51.04818928      48.94095057      50.06960532
N       49.72429183      48.50915699      50.07674706
C       48.60945471      49.26359306      50.13804259
N       48.88085487      50.60393381      50.32514783
C       50.25504147      51.27242576      49.97357789
O       47.51015993      48.78012555      50.19584747
O       50.17765671      52.45098400      49.67485217
H       51.82293940      48.22322300      50.24139415
H       49.48022620      47.54901600      49.94807749
H       48.08710350      51.28230727      50.13217191
H       52.48984007      50.56930239      50.05746026
