12
Lattice="100.0 0.0 0.0 0.0 100.0 0.0 0.0 0.0 100.0" Properties=species:S:1:pos:R:3 Energy=-259814.90528914446 pbc="F F F"
C       51.34115946      50.24621643      49.80552289
C       51.06054710      48.92401971      49.96323727
N       49.84723756      48.48884026      50.26339987
C       48.73011412      49.18843682      50.15092076
N       48.89016181      50.61022147      49.94382045
C       50.24567057      51.28229161      49.84601436
O       47.62215269      48.67608769      50.08011414
O       50.44567520      52.47040217      49.85902072
H       51.85959314      48.15386932      49.95847187
H       49.58241658      47.52959783      50.46315036
H       48.11304066      51.18381077      49.53684964
H       52.37784731      50.53985513      49.60625651
