12
Lattice="100.0 0.0 0.0 0.0 100.0 0.0 0.0 0.0 100.0" Properties=species:S:1:pos:R:3 Energy=-259788.3464082434 pbc="F F F"
C       51.30051065      50.33501572      50.00435984
C       51.02463187      49.05498742      50.21401068
N       49.79484276      48.52389005      50.45098788
C       48.75843358      49.38460634      50.21609891
N       48.94449989      50.57461742      49.62686469
C       50.11156632      51.33944602      50.00118739
O       47.62881554      49.08606383      50.60394569
O       50.18045232      52.44794140      50.38382886
H       51.80315025      48.31671985      49.96537175
H       49.71775731      47.55205860      50.45400643
H       48.03426198      50.93288617      49.39605431
H       52.37118446      50.48048741      50.38281056
