12
Lattice="100.0 0.0 0.0 0.0 100.0 0.0 0.0 0.0 100.0" Properties=species:S:1:pos:R:3 Energy=-259807.71941022924 pbc="F F F"
C       51.38699867      50.36985267      49.76729158
C       51.23231286      49.11602695      50.03199044
N       49.97518613      48.46925007      50.03167587
C       48.78799908      49.33063809      50.11970751
N       49.02989161      50.71998747      49.66054477
C       50.27745649      51.29081270      49.85029069
O       47.68492436      48.91107818      50.20858552
O       50.48152010      52.46896928      49.89583911
H       52.15116954      48.47568967      50.18004891
H       49.91677639      47.53103072      50.33945523
H       48.29215835      51.34244480      49.85049923
H       52.31507564      50.92727743      49.75397834
