12
Lattice="100.0 0.0 0.0 0.0 100.0 0.0 0.0 0.0 100.0" Properties=species:S:1:pos:R:3 Energy=-259809.6668634479 pbc="F F F"
C       51.36672185      50.33233111      50.07993341
C       51.05399335      49.01364637      50.05516705
N       49.78974556      48.47908326      49.93736146
C       48.61856751      49.29246523      50.13328892
N       48.98821553      50.60115494      50.08623563
C       50.33627339      51.39793419      49.89458261
O       47.51255572      48.72653840      50.26157385
O       50.31750229      52.60434284      49.69023283
H       51.85648726      48.35948656      50.11049663
H       49.65575568      47.39565716      49.83630680
H       48.24216645      51.22746370      50.30976717
H       52.48744428      50.46501029      50.02914466
