12
Lattice="100.0 0.0 0.0 0.0 100.0 0.0 0.0 0.0 100.0" Properties=species:S:1:pos:R:3 Energy=-259810.20870360418 pbc="F F F"
C       51.33150944      50.25317047      49.90789674
C       50.97141136      48.93920984      50.00741148
N       49.77644645      48.36066576      49.74554816
C       48.63604050      49.27925517      49.89320951
N       48.96499645      50.60002905      49.81987899
C       50.23484520      51.32966946      49.79159454
O       47.58844727      48.74998975      50.25468167
O       50.23824226      52.51341963      49.62264563
H       51.75794288      48.29887809      50.37735437
H       49.51408696      47.48658037      50.13029018
H       48.02630648      51.13272696      49.79620762
H       52.41155273      50.54704590      50.14052134
