12
Lattice="100.0 0.0 0.0 0.0 100.0 0.0 0.0 0.0 100.0" Properties=species:S:1:pos:R:3 Energy=-259810.27700708547 pbc="F F F"
C       51.36856180      50.35519846      49.62491405
C       51.25457840      49.02947692      49.80272290
N       49.94134723      48.56228829      50.08340308
C       48.72463693      49.34592089      49.99209704
N       48.96927079      50.71767123      49.87007189
C       50.28204435      51.24063519      49.74618929
O       47.59469687      48.77513896      49.86364921
O       50.45656542      52.40956204      49.63004657
H       52.00522808      48.15965576      49.71438666
H       49.84060738      47.59043796      50.38773466
H       48.30510512      51.50701262      49.83339200
H       52.40530313      50.89191657      49.61226534
