12
Lattice="100.0 0.0 0.0 0.0 100.0 0.0 0.0 0.0 100.0" Properties=species:S:1:pos:R:3 Energy=-259800.08166331428 pbc="F F F"
C       51.48903985      50.47284869      50.16332499
C       51.34692657      49.10726882      50.07647149
N       50.00934413      48.56853826      49.99434895
C       48.74181740      49.34280948      50.09998314
N       49.07659862      50.72548136      50.41632969
C       50.31436579      51.33005263      50.04031561
O       47.62089397      48.89746321      50.23240073
O       50.53846112      52.44660452      49.58367031
H       52.24294206      48.40776160      50.09038283
H       50.17151879      47.55339548      50.30255015
H       48.25053280      51.34102092      50.20727536
H       52.37910603      50.94513634      49.92494687
