12
Lattice="100.0 0.0 0.0 0.0 100.0 0.0 0.0 0.0 100.0" Properties=species:S:1:pos:R:3 Energy=-259810.55898181038 pbc="F F F"
C       51.36675661      50.26594920      50.08471009
C       51.11795328      48.97877693      50.01387951
N       49.89753638      48.51214379      49.87175712
C       48.69818949      49.19466716      50.09855674
N       48.98768533      50.62013268      50.04501662
C       50.38425393      51.35380324      49.89888769
O       47.63277377      48.65041968      50.25834988
O       50.48730043      52.53970982      49.63043423
H       51.90737965      48.27705538      50.18082520
H       49.77499586      47.46029018      49.80702848
H       48.13514682      51.15955613      49.92780687
H       52.36722623      50.60358780      50.36956577
