12
Lattice="100.0 0.0 0.0 0.0 100.0 0.0 0.0 0.0 100.0" Properties=species:S:1:pos:R:3 Energy=-259806.80089071087 pbc="F F F"
C       51.55954086      50.47359290      50.01830920
C       51.30060498      49.11046922      50.06702074
N       49.94755944      48.51301591      50.03094077
C       48.68441599      49.34344976      50.12602923
N       49.10065391      50.67134093      49.87570990
C       50.34882778      51.28540559      49.90950412
O       47.56712673      48.88538424      50.35802239
O       50.43778730      52.49255569      49.87737604
H       52.05557741      48.37073240      50.26065229
H       49.96228009      47.50744431      50.40576846
H       48.49903873      51.44382501      49.59423154
H       52.43287327      51.12355725      50.03843267
