12
Lattice="100.0 0.0 0.0 0.0 100.0 0.0 0.0 0.0 100.0" Properties=species:S:1:pos:R:3 Energy=-259807.43220819542 pbc="F F F"
C       51.30420824      50.22883543      50.03863159
C       50.98671230      48.90379564      49.97941301
N       49.74744382      48.49123145      49.70451273
C       48.67077759      49.25356678      50.00970438
N       48.82798931      50.65717875      49.74369873
C       50.18215762      51.22144216      49.75404958
O       47.64193672      48.74156452      50.31252377
O       50.26421199      52.46280314      49.68747623
H       51.54869417      48.03371358      50.08400454
H       49.55432535      47.53719686      49.85121977
H       48.15300093      51.32510065      50.04550746
H       52.35806328      50.49316471      50.00485328
