12
Lattice="100.0 0.0 0.0 0.0 100.0 0.0 0.0 0.0 100.0" Properties=species:S:1:pos:R:3 Energy=-259801.39229423658 pbc="F F F"
C       51.37823621      50.29556452      49.77132537
C       51.14173717      49.00160521      50.09081669
N       49.90653538      48.53283541      50.24274610
C       48.80301361      49.26712711      50.14672700
N       48.86972127      50.62116483      49.83415008
C       50.32464219      51.21381866      49.96611476
O       47.68319386      48.71273398      50.22800204
O       50.51564548      52.42777536      49.95737807
H       51.96976168      48.24530623      50.21112606
H       49.66569593      47.57222464      50.59701645
H       48.06220826      51.05812648      50.02359757
H       52.31680614      50.73519210      49.40298355
