12
Lattice="100.0 0.0 0.0 0.0 100.0 0.0 0.0 0.0 100.0" Properties=species:S:1:pos:R:3 Energy=-259807.52232342787 pbc="F F F"
C       51.28546682      50.18759700      50.03586459
C       50.98314252      48.88487683      49.97190967
N       49.74296610      48.45327057      49.70182135
C       48.68266205      49.22612737      50.01296316
N       48.84069204      50.61001556      49.71917838
C       50.18558584      51.19519803      49.75581098
O       47.64972901      48.71583259      50.31259741
O       50.26748153      52.44881487      49.68740259
H       51.62311544      48.02593483      50.09823615
H       49.50080217      47.55118513      49.84325277
H       48.12513832      51.23986636      50.03914864
H       52.35027099      50.43261499      50.01636778
