12
Lattice="100.0 0.0 0.0 0.0 100.0 0.0 0.0 0.0 100.0" Properties=species:S:1:pos:R:3 Energy=-259812.66852438584 pbc="F F F"
C       51.43870756      50.28018504      49.93775268
C       51.16529223      48.94738829      50.14400819
N       49.86749844      48.50928597      50.00916567
C       48.78991422      49.31716547      50.18235649
N       49.03038948      50.66105084      50.31482906
C       50.25582729      51.23209218      49.89011808
O       47.68040174      48.83885256      50.07435109
O       50.31871101      52.46111237      49.68517094
H       51.86694399      47.99670548      50.11599646
H       49.62426500      47.53888763      50.07293045
H       48.21307123      51.18721218      50.21978867
H       52.31959826      50.86247508      49.72680762
