12
Lattice="100.0 0.0 0.0 0.0 100.0 0.0 0.0 0.0 100.0" Properties=species:S:1:pos:R:3 Energy=-259804.23626742835 pbc="F F F"
C       51.45724673      50.31652151      49.53897754
C       51.26149265      48.91368132      49.85856952
N       49.95825199      48.47645088      49.93354422
C       48.80677611      49.24967194      49.88961255
N       48.96188972      50.56813904      49.65800611
C       50.30250378      51.16697802      49.55926117
O       47.63455098      48.76732617      49.94614642
O       50.48091112      52.36872822      49.72888600
H       51.98824113      48.12292018      50.00363878
H       49.71594846      47.63127178      50.52450811
H       48.04735262      51.05127172      49.50772184
H       52.36544902      51.06653455      49.47549189
