12
Lattice="100.0 0.0 0.0 0.0 100.0 0.0 0.0 0.0 100.0" Properties=species:S:1:pos:R:3 Energy=-259809.69322305263 pbc="F F F"
C       51.39737585      50.35109763      50.11757211
C       51.19522595      49.00830936      50.05374349
N       49.82621244      48.52182325      49.89124018
C       48.71622308      49.30456802      50.01516312
N       49.03148253      50.61126820      50.18686629
C       50.20616775      51.23573165      49.84444029
O       47.63791259      48.83683924      50.27342149
O       50.39682178      52.47263832      49.66148231
H       51.94676298      48.13449305      50.03970738
H       49.61540906      47.52736168      49.94028424
H       48.13556850      51.10119577      50.32783188
H       52.36208741      50.90415508      50.33851769
