12
Lattice="100.0 0.0 0.0 0.0 100.0 0.0 0.0 0.0 100.0" Properties=species:S:1:pos:R:3 Energy=-259811.20402489754 pbc="F F F"
C       51.38647821      50.32386571      49.93528741
C       51.04002658      48.94401709      49.98331151
N       49.77818775      48.42776704      50.07342722
C       48.67108154      49.23805222      50.07831050
N       49.01137338      50.53034319      49.77903239
C       50.36696167      51.29269037      49.79715651
O       47.58287286      48.77686574      50.26817009
O       50.24930774      52.50385297      49.87975276
H       51.88236619      48.18729616      49.89931330
H       49.57052732      47.49614703      50.29911551
H       48.08464060      51.12554000      49.74786034
H       52.41712714      50.70510612      49.70088449
