12
Lattice="100.0 0.0 0.0 0.0 100.0 0.0 0.0 0.0 100.0" Properties=species:S:1:pos:R:3 Energy=-259802.76572452055 pbc="F F F"
C       51.41121656      50.33044125      49.59820469
C       51.27597486      49.07667642      49.98121033
N       50.04568196      48.51143703      50.24903856
C       48.82833547      49.21446772      50.08347413
N       49.07943079      50.60206938      49.86010995
C       50.36460815      51.18908685      49.80545421
O       47.63742665      48.71345875      50.00749892
O       50.64262454      52.37389332      49.87939940
H       52.26558350      48.65411077      50.14876166
H       49.96365534      47.62610668      50.71633371
H       48.29457213      51.17408506      49.95188253
H       52.36257335      50.80074071      49.28366629
