12
Lattice="100.0 0.0 0.0 0.0 100.0 0.0 0.0 0.0 100.0" Properties=species:S:1:pos:R:3 Energy=-259794.62656285398 pbc="F F F"
C       51.46816712      50.26209566      49.97288511
C       51.13965191      48.97262549      49.96700434
N       49.83000309      48.47512374      50.02677265
C       48.68472131      49.12358923      50.07218406
N       49.08069278      50.41056796      50.43754496
C       50.21631479      51.16933384      49.87693521
O       47.48877909      48.82598774      49.96890423
O       50.29706176      52.34167412      49.51202243
H       51.81634628      48.14648963      49.88759867
H       49.71166519      47.65832588      49.43562340
H       48.20037032      50.88935999      50.56437660
H       52.51122091      50.47364574      50.10664708
