12
Lattice="100.0 0.0 0.0 0.0 100.0 0.0 0.0 0.0 100.0" Properties=species:S:1:pos:R:3 Energy=-259805.83047269259 pbc="F F F"
C       51.44758677      50.37852561      49.99561689
C       51.26690690      49.08480143      49.96985036
N       50.00842948      48.55487052      50.04306939
C       48.80733291      49.33540897      50.17817460
N       49.14132475      50.76713107      50.29786999
C       50.38691694      51.29463982      49.97147651
O       47.66849629      48.84999541      50.01476787
O       50.43584772      52.39352006      49.56258491
H       52.07294610      48.48609428      49.86105494
H       49.82114806      47.60647994      49.69482272
H       48.31168635      51.36075006      50.43741509
H       52.33150371      50.93395290      49.95069367
