16
Lattice="100.0 0.0 0.0 0.0 100.0 0.0 0.0 0.0 100.0" Properties=species:S:1:pos:R:3 Energy=-310652.6875 Energy_pyscf=-310652.4170574235 Energy_nn=-310656.09375 pbc="F F F"
C       51.77635214      49.93798154      50.11875252
C       50.37424094      49.86051464      49.99521325
C       49.52651178      50.95256528      49.76238222
O       49.89077284      52.14873533      49.53792377
C       48.03516376      50.90225528      49.72386713
C       47.49130142      49.63905324      49.77430569
C       48.34071525      48.44841965      49.98805689
C       49.72731476      48.64712519      49.75820220
O       52.44855074      50.96132799      49.81431604
O       52.45125745      48.71260084      50.30367805
H       50.76312639      52.26216732      49.86012082
H       47.49977368      51.88498772      49.64273766
H       46.49740299      49.53265990      49.70871246
H       47.96219265      47.40744509      49.61307882
H       50.29979360      47.83168059      49.36859191
H       53.41008036      49.12062895      50.26910712
