16
Lattice="100.0 0.0 0.0 0.0 100.0 0.0 0.0 0.0 100.0" Properties=species:S:1:pos:R:3 Energy=-310684.84375 Energy_pyscf=-310687.4513321183 Energy_nn=-310686.40625 pbc="F F F"
C       51.87414156      50.19910100      49.94168961
C       50.34180728      49.99816090      49.82504818
C       49.51848298      51.18432045      49.77646437
O       50.11494126      52.45448332      49.78712400
C       48.10727219      51.05358539      49.73266786
C       47.55890806      49.77388421      49.71516119
C       48.36415365      48.57560447      49.86768801
C       49.68988106      48.72981660      49.77862071
O       52.42746472      51.28979817      50.01996175
O       52.46263377      48.97738269      50.20283041
H       51.09810643      52.27691608      50.02992498
H       47.42227237      51.92648058      49.82444299
H       46.44113499      49.76878693      49.73652432
H       47.79739247      47.62920014      50.03207244
H       50.35141976      47.80966057      49.76513998
H       53.44001422      48.96292338      50.37387377
