16
Lattice="100.0 0.0 0.0 0.0 100.0 0.0 0.0 0.0 100.0" Properties=species:S:1:pos:R:3 Energy=-310693.6875 Energy_pyscf=-310691.61385600496 Energy_nn=-310691.0 pbc="F F F"
C       51.96599436      50.11679349      50.01659090
C       50.46950922      50.01668655      49.88608718
C       49.69574461      51.23152634      49.77684710
O       50.21978580      52.47107347      49.63107610
C       48.28434728      51.03212223      49.80297593
C       47.65284611      49.77018594      49.88102372
C       48.38327423      48.57749875      49.82274870
C       49.77670600      48.68861144      49.89206990
O       52.51911053      51.20236081      49.89255919
O       52.55343935      48.98356194      50.39960856
H       51.21357685      52.33936837      49.57177175
H       47.73146772      51.92646998      50.02348721
H       46.59274001      49.59724530      49.90849213
H       47.95641001      47.60126255      49.77486150
H       50.49848174      47.86889249      49.85148998
H       53.52787855      49.15385840      50.45211502
