16
Lattice="100.0 0.0 0.0 0.0 100.0 0.0 0.0 0.0 100.0" Properties=species:S:1:pos:R:3 Energy=-310686.3125 Energy_pyscf=-310687.67799788516 Energy_nn=-310686.6875 pbc="F F F"
C       51.92900834      50.11094074      50.12062316
C       50.45258989      50.07013267      49.96595706
C       49.63150591      51.22012396      49.92057158
O       50.13910150      52.49678995      49.79074944
C       48.25725729      51.07577039      49.86343575
C       47.68353075      49.81777658      49.92181758
C       48.40306764      48.63748058      49.93246445
C       49.78083132      48.74449429      49.90065450
O       52.53033691      51.19870701      50.02960091
O       52.55802630      48.94998781      50.23602080
H       51.19313485      52.45036370      49.96257169
H       47.69470548      52.01857536      50.16336806
H       46.56616049      49.85880437      50.06072540
H       47.94176974      47.59032194      49.88050425
H       50.38623013      47.79347201      49.87207350
H       53.54989593      49.09060659      50.22621521
