16
Lattice="100.0 0.0 0.0 0.0 100.0 0.0 0.0 0.0 100.0" Properties=species:S:1:pos:R:3 Energy=-310684.40625 Energy_pyscf=-310685.47819886747 Energy_nn=-310684.9375 pbc="F F F"
C       51.83223228      50.02983134      50.03335207
C       50.36472907      49.87519592      49.81233635
C       49.56234753      51.03004837      49.71338047
O       50.08380367      52.34119118      49.74232604
C       48.14797957      50.92186909      49.63402201
C       47.51635014      49.73379396      49.83394342
C       48.31677894      48.51726160      50.03630341
C       49.74199628      48.62816749      49.99175178
O       52.47091794      51.02940596      50.43755455
O       52.52132164      48.90863685      49.69571698
H       51.02328523      52.21166812      50.06275863
H       47.71426847      51.86747778      49.21281264
H       46.37075312      49.59902523      49.71656577
H       47.95109968      47.53045129      50.28437682
H       50.38061929      47.79009395      49.88033580
H       53.43017565      49.14925513      49.92367717
