16
Lattice="100.0 0.0 0.0 0.0 100.0 0.0 0.0 0.0 100.0" Properties=species:S:1:pos:R:3 Energy=-310658.09375 Energy_pyscf=-310662.4642537519 Energy_nn=-310659.5 pbc="F F F"
C       51.88255807      49.90406700      50.20360956
C       50.31964244      49.68941725      50.29320783
C       49.54389838      50.83268243      50.09184091
O       49.95947266      52.10765472      49.80353200
C       48.17014008      50.76414005      49.92057068
C       47.57222041      49.58353527      49.86935125
C       48.31864336      48.36716251      50.00963571
C       49.75317518      48.40450311      50.40165005
O       52.35424614      51.04624763      50.38878894
O       52.54253165      48.74710010      49.91009641
H       50.77516756      52.44927124      50.15145296
H       47.69974119      51.70676208      49.51202316
H       46.53778565      49.47060121      49.84136780
H       47.87001836      47.34908707      50.31894473
H       50.31124822      47.50812856      50.53510447
H       53.47866115      49.03308743      50.21282236
