16
Lattice="100.0 0.0 0.0 0.0 100.0 0.0 0.0 0.0 100.0" Properties=species:S:1:pos:R:3 Energy=-310694.78125 Energy_pyscf=-310689.85554000485 Energy_nn=-310692.53125 pbc="F F F"
C       51.88319231      50.13545095      49.98460157
C       50.43208884      49.97061630      49.97715536
C       49.64989858      51.16785283      49.91143033
O       50.28958785      52.39873084      49.87841690
C       48.24438049      51.05285406      49.97627587
C       47.61127096      49.82888954      50.02315000
C       48.39408418      48.65592542      49.92708748
C       49.77801142      48.69129073      49.91847250
O       52.41123981      51.25982264      50.07986345
O       52.66917995      48.96874554      50.19454610
H       51.29551138      52.25714457      49.87570450
H       47.65723221      51.95429667      50.01525474
H       46.56115780      49.87994196      50.06666302
H       47.81002967      47.71908016      49.98503869
H       50.45353177      47.86506721      49.65510120
H       53.60692720      49.32107881      50.39396748
