16
Lattice="100.0 0.0 0.0 0.0 100.0 0.0 0.0 0.0 100.0" Properties=species:S:1:pos:R:3 Energy=-310651.75 Energy_pyscf=-310641.2768361118 Energy_nn=-310654.96875 pbc="F F F"
C       51.98286858      49.94915397      49.81989259
C       50.53278234      50.01145323      49.95632426
C       49.69464570      51.18518323      49.63749495
O       49.91234025      52.46337271      49.93237689
C       48.17793763      50.88792408      49.60223697
C       47.63101920      49.58449132      49.50494165
C       48.54866667      48.47269668      49.62382232
C       49.74865069      48.78557929      50.22902671
O       52.65840575      50.95421122      49.53525715
O       52.56647279      48.79205315      50.32693428
H       50.89605064      52.55699015      49.91662847
H       47.56197054      51.75752311      49.54837387
H       46.61308174      49.69140148      49.49698478
H       48.03270459      47.44521333      49.69413836
H       50.57053828      47.99820520      50.42488749
H       53.59475696      49.03929175      50.48389550
