16
Lattice="100.0 0.0 0.0 0.0 100.0 0.0 0.0 0.0 100.0" Properties=species:S:1:pos:R:3 Energy=-310647.71875 Energy_pyscf=-310635.7669922891 Energy_nn=-310653.96875 pbc="F F F"
C       51.88589957      50.01439435      50.06879082
C       50.29002799      49.88126177      49.91076104
C       49.58441432      51.08762079      49.64139100
O       50.11787281      52.34295827      49.90721965
C       48.18457778      50.89156930      49.62849390
C       47.50259626      49.60885788      49.66102998
C       48.29366000      48.45921835      50.00280668
C       49.64986709      48.49482639      50.00646993
O       52.23616227      51.16311523      49.72613401
O       52.62980286      48.81386505      50.09571766
H       51.20952173      52.14833979      49.72652962
H       47.62118841      51.92972894      49.80806439
H       46.48317139      49.63293625      49.60056072
H       47.50611410      47.69297772      49.90558013
H       50.25610608      47.65758904      50.37685189
H       53.45357913      48.93418977      50.45871616
