16
Lattice="100.0 0.0 0.0 0.0 100.0 0.0 0.0 0.0 100.0" Properties=species:S:1:pos:R:3 Energy=-310668.5 Energy_pyscf=-310665.30615012883 Energy_nn=-310667.8125 pbc="F F F"
C       51.85030112      50.03498909      50.01441172
C       50.44012195      50.04382604      49.80557644
C       49.71308146      51.22735410      49.79731218
O       50.21862984      52.44805656      49.86979630
C       48.27964482      51.12307305      49.98860559
C       47.72523268      49.79328469      49.84918877
C       48.43282851      48.58802023      49.82506126
C       49.76945934      48.80582780      49.83053443
O       52.51657892      51.13884366      50.01716576
O       52.65085952      49.01985413      50.46166625
H       51.22243625      52.32768394      49.95114663
H       47.60245140      51.92991804      50.24667335
H       46.57969507      49.78791190      50.00789240
H       47.74662393      47.71770021      50.19003770
H       50.46951484      47.88814614      49.73787487
H       53.51558585      49.24197695      50.25802872
