16
Lattice="100.0 0.0 0.0 0.0 100.0 0.0 0.0 0.0 100.0" Properties=species:S:1:pos:R:3 Energy=-310662.21875 Energy_pyscf=-310663.9814966937 Energy_nn=-310662.53125 pbc="F F F"
C       51.89599452      50.18594758      50.14953023
C       50.43643300      50.02616084      49.89750028
C       49.68951969      51.18024268      49.81050169
O       50.25549793      52.40470539      49.70646880
C       48.31202805      51.03594414      50.03795355
C       47.66140755      49.79221537      49.91973297
C       48.44483659      48.63482197      49.73595186
C       49.70189963      48.81152899      49.85760839
O       52.57038990      51.17670078      49.95495463
O       52.49423524      48.93903099      50.31278953
H       51.30542344      52.30187042      50.00733956
H       47.66215192      51.81541114      50.28736612
H       46.59468820      49.77759640      50.02890256
H       47.94271926      47.72540871      49.96378315
H       50.27714065      47.93794278      49.96803750
H       53.46234156      49.32073886      50.23273834
