16
Lattice="100.0 0.0 0.0 0.0 100.0 0.0 0.0 0.0 100.0" Properties=species:S:1:pos:R:3 Energy=-310682.375 Energy_pyscf=-310682.0348046862 pbc="F F F"
C       51.87818418      50.14226588      50.14448903
C       50.43941232      49.92124868      49.87842145
C       49.70103503      51.13399339      49.76413725
O       50.20421176      52.43798798      49.69097932
C       48.33937250      51.08065162      49.98419877
C       47.69369597      49.78407032      50.03239454
C       48.38131415      48.53191063      49.89874066
C       49.71007447      48.71542415      49.87527723
O       52.43017115      51.21182424      50.31213199
O       52.62695735      48.99398951      50.12963853
H       51.16707115      52.33034963      50.00198588
H       47.82010315      52.01017841      50.07257671
H       46.56640938      49.95884586      50.13641381
H       47.78012701      47.61039489      49.89459277
H       50.42185208      47.87662528      49.83447245
H       53.57545722      49.36577174      50.22355102
