16
Lattice="100.0 0.0 0.0 0.0 100.0 0.0 0.0 0.0 100.0" Properties=species:S:1:pos:R:3 Energy=-310669.84375 Energy_pyscf=-310665.056897056 pbc="F F F"
C       51.95037740      50.10979539      50.08264884
C       50.47320792      50.02448044      50.01559718
C       49.71252728      51.20557192      49.77995410
O       50.37100004      52.44523999      49.76272904
C       48.28164074      51.03720475      49.99148208
C       47.72071191      49.75749852      49.98221782
C       48.44131180      48.61457426      49.98207265
C       49.91055684      48.67891383      49.87065349
O       52.61728552      51.17908643      49.98399268
O       52.49218348      48.94506630      50.51118909
H       51.26624666      52.12544744      49.66985529
H       47.66903029      51.98606971      49.78637366
H       46.64364558      49.38480577      49.91898846
H       48.07069600      47.61144957      49.50623922
H       50.56949384      47.87056549      49.63990297
H       53.49289195      49.13443680      50.52959992
