16
Lattice="100.0 0.0 0.0 0.0 100.0 0.0 0.0 0.0 100.0" Properties=species:S:1:pos:R:3 Energy=-310667.0625 Energy_pyscf=-310669.76307785744 Energy_nn=-310667.625 pbc="F F F"
C       51.87853062      50.11061945      50.18174119
C       50.44173862      49.99017439      50.27628969
C       49.58214696      51.09983052      49.94562355
O       50.00725799      52.35636905      49.99940751
C       48.24185800      50.91032521      49.84574992
C       47.64175712      49.63590675      49.89942387
C       48.46044489      48.58162094      49.96782820
C       49.81270471      48.76710561      50.34675588
O       52.59343465      51.08337864      49.81718814
O       52.36294187      48.92876630      50.36593031
H       51.03097852      52.35455043      50.11069094
H       47.63734707      51.93940719      49.74231908
H       46.61776434      49.41314325      49.92079219
H       48.31862925      47.52673125      49.94403218
H       50.35776523      47.85322894      50.49016218
H       53.34423649      48.97191722      50.15161772
