16
Lattice="100.0 0.0 0.0 0.0 100.0 0.0 0.0 0.0 100.0" Properties=species:S:1:pos:R:3 Energy=-310680.09375 Energy_pyscf=-310668.88393881 Energy_nn=-310679.9375 pbc="F F F"
C       51.76003397      50.03130536      50.37876180
C       50.34295290      49.91679566      50.20762796
C       49.52053697      51.01063711      49.87497980
O       49.97498725      52.22679176      49.47807761
C       48.13844992      50.97805050      50.06388828
C       47.47842662      49.66483811      50.17587343
C       48.33808695      48.59165135      50.10498778
C       49.71227569      48.68816412      50.04736502
O       52.38860450      51.07883408      50.65534710
O       52.55407809      48.93572093      50.03306845
H       50.95716078      52.16692016      49.56766083
H       47.53283228      51.79959867      50.07273023
H       46.45577068      49.62465274      50.21756338
H       48.01752579      47.52340795      49.92321975
H       50.26795826      47.79141197      50.29070771
H       53.43857438      49.09043654      50.30804043
