16
Lattice="100.0 0.0 0.0 0.0 100.0 0.0 0.0 0.0 100.0" Properties=species:S:1:pos:R:3 Energy=-310696.9375 Energy_pyscf=-310692.8179164486 Energy_nn=-310692.9375 pbc="F F F"
C       51.94795870      50.16663452      50.13451478
C       50.48985679      49.95550399      49.92631221
C       49.67828452      51.17180033      49.89510371
O       50.21123153      52.36729850      49.78925934
C       48.28152744      51.08592941      49.94621311
C       47.65636863      49.87024716      50.00407423
C       48.39075623      48.63249792      49.92929086
C       49.75429912      48.73513786      49.89894994
O       52.47194839      51.26256426      50.06704299
O       52.64757327      48.98875812      50.25771218
H       51.14923159      52.24233932      50.06700337
H       47.66744611      52.02315629      49.98696234
H       46.62057434      49.87382094      50.05969427
H       47.90509975      47.61984203      49.91803724
H       50.28786927      47.79520674      49.83140668
H       53.56027942      49.27269120      50.13928882
