16
Lattice="100.0 0.0 0.0 0.0 100.0 0.0 0.0 0.0 100.0" Properties=species:S:1:pos:R:3 Energy=-310684.65625 Energy_pyscf=-310678.5740145352 Energy_nn=-310683.875 pbc="F F F"
C       51.82939267      49.93752195      50.09476343
C       50.40785614      49.85075426      50.07124451
C       49.65344216      51.04391389      50.07076670
O       50.12622695      52.27427563      49.98593817
C       48.23792103      50.89416634      49.98894941
C       47.59615766      49.58452785      49.74011634
C       48.44427874      48.47772453      50.03291285
C       49.79716855      48.60012182      50.19914763
O       52.48501585      51.02639625      50.04420049
O       52.43014141      48.70053913      50.25068205
H       51.07905189      52.31477667      50.24845388
H       47.64593266      51.75861354      50.08892863
H       46.56242707      49.39508149      49.37753268
H       47.90357254      47.57635423      49.88209287
H       50.38872650      47.73800561      50.59728686
H       53.41320121      48.88124827      50.48322958
