16
Lattice="100.0 0.0 0.0 0.0 100.0 0.0 0.0 0.0 100.0" Properties=species:S:1:pos:R:3 Energy=-310663.84375 Energy_pyscf=-310663.54072401335 Energy_nn=-310663.21875 pbc="F F F"
C       51.91911605      49.82101768      50.23485456
C       50.45103327      49.74729590      50.03557883
C       49.53959840      50.89800327      49.81576500
O       49.81226888      52.24177083      49.85093875
C       48.18907420      50.72010780      49.72002843
C       47.49994796      49.56907975      49.93544206
C       48.29999283      48.34952667      50.18108336
C       49.68413788      48.44853009      50.20921553
O       52.46859366      50.91063683      50.48688765
O       52.56903339      48.76178769      49.80218076
H       50.88714030      52.35441783      50.05449489
H       47.64874402      51.66019145      49.46899358
H       46.43636114      49.37209993      49.91133854
H       47.68815870      47.51055038      50.36571085
H       50.14859777      47.54948189      50.16473562
H       53.56277811      48.98550326      49.83788189
