16
Lattice="100.0 0.0 0.0 0.0 100.0 0.0 0.0 0.0 100.0" Properties=species:S:1:pos:R:3 Energy=-310676.46875 Energy_pyscf=-310675.5141191886 pbc="F F F"
C       51.88261014      50.03966435      50.19374435
C       50.38667832      50.00686192      50.20932819
C       49.67187703      51.14232765      49.97116240
O       50.05299124      52.40576102      50.12304553
C       48.26621069      50.91854184      49.80448516
C       47.56802089      49.61406054      49.91912861
C       48.44748120      48.52569739      50.02053072
C       49.80201905      48.73872401      50.29523403
O       52.54457454      51.01099015      49.92764755
O       52.47763401      48.91842194      50.46451616
H       51.03632031      52.36909173      50.00875532
H       47.56140798      51.87926712      49.64130543
H       46.46620049      49.49356011      49.97391626
H       48.18240631      47.50180977      50.03302050
H       50.54787556      47.93216305      50.27604498
H       53.40536187      49.00548481      50.11563924
