16
Lattice="100.0 0.0 0.0 0.0 100.0 0.0 0.0 0.0 100.0" Properties=species:S:1:pos:R:3 Energy=-310685.25 Energy_pyscf=-310680.26269959135 pbc="F F F"
C       51.78811838      49.99652563      50.03039679
C       50.37859210      49.78607688      49.90075610
C       49.61779930      51.00293944      49.59680422
O       50.07207225      52.27174485      49.66316127
C       48.21843122      50.91147599      49.70648056
C       47.54073265      49.66875100      49.71280929
C       48.27784503      48.57333104      49.98946500
C       49.63643550      48.57464136      50.09633666
O       52.30446145      51.08125300      49.96779752
O       52.53051996      48.80453840      50.02466861
H       50.99644167      52.33865098      49.96729092
H       47.71313109      51.85228584      49.62450720
H       46.49623660      49.74475222      49.55922421
H       47.76858687      47.65278920      50.00081254
H       50.11469831      47.59009573      50.39025730
H       53.45574234      48.97700976      50.26769454
