16
Lattice="100.0 0.0 0.0 0.0 100.0 0.0 0.0 0.0 100.0" Properties=species:S:1:pos:R:3 Energy=-310651.65625 Energy_pyscf=-310653.15763278905 Energy_nn=-310651.6875 pbc="F F F"
C       51.81389330      50.16387032      50.26417155
C       50.41528577      50.02497233      49.82780861
C       49.68228162      51.28926022      49.75061199
O       50.29502440      52.43030718      49.53826393
C       48.32969369      51.04737217      50.06696062
C       47.78389455      49.85914639      49.88708425
C       48.40857517      48.59420189      49.83250269
C       49.83848778      48.72344745      49.77942562
O       52.51489951      51.26533704      50.19623069
O       52.36971807      48.98735888      50.36973852
H       51.29732340      52.31617207      50.01413248
H       47.61995415      51.77047617      50.40199811
H       46.70751968      49.83342263      49.92965480
H       47.92295910      47.70982555      50.06039260
H       50.43643431      47.89785655      49.96847520
H       53.26397653      49.17582307      50.00343295
