16
Lattice="100.0 0.0 0.0 0.0 100.0 0.0 0.0 0.0 100.0" Properties=species:S:1:pos:R:3 Energy=-310666.0625 Energy_pyscf=-310672.8951814866 Energy_nn=-310667.59375 pbc="F F F"
C       51.87516347      49.91214575      50.24069963
C       50.37457020      49.85102116      50.16474989
C       49.57054390      50.97999090      49.94131786
O       49.94468993      52.32780562      50.01394743
C       48.22308900      50.77064383      49.84761964
C       47.57295901      49.60279251      49.93919098
C       48.32115146      48.42182440      50.24729420
C       49.72627131      48.57952838      50.29799687
O       52.46887025      50.94926038      50.32254992
O       52.41356830      48.59441434      50.22898344
H       50.78655130      52.41739397      50.49553866
H       47.66643322      51.71785345      49.58458211
H       46.63097888      49.40017839      49.39626034
H       47.93149425      47.44890331      50.60109850
H       50.33375469      47.67620156      50.45670379
H       53.40894721      48.91828754      50.28011916
