16
Lattice="100.0 0.0 0.0 0.0 100.0 0.0 0.0 0.0 100.0" Properties=species:S:1:pos:R:3 Energy=-310668.75 Energy_pyscf=-310662.4617339944 Energy_nn=-310667.8125 pbc="F F F"
C       52.00778857      50.17662289      50.19968305
C       50.47554818      49.96480223      50.02579479
C       49.63396419      51.15199995      49.86019527
O       50.19972103      52.31223440      49.78876161
C       48.20472763      51.01352638      49.99370091
C       47.57879381      49.88021515      49.97004522
C       48.43121386      48.68519723      50.00462246
C       49.80436445      48.72224103      49.86148431
O       52.60137430      51.23635944      49.84605214
O       52.62168926      49.02093063      50.30503915
H       51.21067419      52.02262312      49.95024721
H       47.63025600      51.95119698      50.21131759
H       46.48705892      49.92379335      49.85700911
H       47.83129004      47.75211505      50.06527750
H       50.43178081      47.92600305      49.52659419
H       53.54098481      49.34877313      50.34416130
