16
Lattice="100.0 0.0 0.0 0.0 100.0 0.0 0.0 0.0 100.0" Properties=species:S:1:pos:R:3 Energy=-310669.71875 Energy_pyscf=-310665.5840332115 Energy_nn=-310669.90625 pbc="F F F"
C       51.91565192      50.09746391      50.22740864
C       50.40618614      49.93208015      50.04335810
C       49.65971796      51.19094957      49.84136134
O       50.22395620      52.40139771      49.70628094
C       48.29364770      51.03660759      49.96913202
C       47.67259186      49.87334125      50.03861581
C       48.46587200      48.62680506      49.86557711
C       49.76963600      48.72227032      49.97533218
O       52.43987688      51.25554585      50.06300833
O       52.61046815      48.90336894      50.25828614
H       51.22754011      52.33021088      50.04323215
H       47.61754873      51.87466647      49.96182683
H       46.60334100      49.91795229      50.09509043
H       47.77145332      47.73704784      49.99066246
H       50.49218813      47.95331213      49.62840028
H       53.54106981      49.27102548      50.15021706
