16
Lattice="100.0 0.0 0.0 0.0 100.0 0.0 0.0 0.0 100.0" Properties=species:S:1:pos:R:3 Energy=-310671.375 Energy_pyscf=-310669.2248182535 Energy_nn=-310669.46875 pbc="F F F"
C       51.84138299      50.15898733      50.32648363
C       50.39660301      49.98938048      50.33337170
C       49.61708913      51.09617421      50.00751655
O       50.06806248      52.34943445      50.09264654
C       48.29128142      50.94600385      49.79747844
C       47.70406960      49.73688738      50.12120153
C       48.44359397      48.61246800      50.17101248
C       49.81949745      48.73850234      50.27478384
O       52.37299074      51.21592254      50.39439800
O       52.48610321      48.83451967      50.44039641
H       51.01991457      52.17115374      50.06582181
H       47.74323143      51.86169325      49.64138295
H       46.56310046      49.82800940      50.19363508
H       48.03215578      47.62715323      50.12335050
H       50.51939306      47.97031056      50.25179238
H       53.44121481      49.12585253      50.16363300
