16
Lattice="100.0 0.0 0.0 0.0 100.0 0.0 0.0 0.0 100.0" Properties=species:S:1:pos:R:3 Energy=-310682.3125 Energy_pyscf=-310686.2858903556 Energy_nn=-310685.34375 pbc="F F F"
C       51.89462046      50.15440760      50.12588707
C       50.44486598      49.95737923      49.88121111
C       49.66261918      51.19975704      49.80675637
O       50.27027515      52.38080938      49.88907015
C       48.29856399      51.09115978      50.00881582
C       47.69099335      49.85617694      49.95420050
C       48.33518580      48.56413657      49.84956697
C       49.74933966      48.64841578      49.84782978
O       52.37162818      51.30221284      50.11338022
O       52.64811479      49.11793919      50.23368753
H       51.26259461      52.14013128      49.85402384
H       47.76837205      52.02189012      50.18114263
H       46.56183992      49.94321644      49.97736890
H       47.84036196      47.63238933      50.02767982
H       50.35979231      47.75764294      49.80388728
H       53.56521480      49.36036446      50.26652191
