16
Lattice="100.0 0.0 0.0 0.0 100.0 0.0 0.0 0.0 100.0" Properties=species:S:1:pos:R:3 Energy=-310681.96875 Energy_pyscf=-310681.8871770955 pbc="F F F"
C       51.90365789      50.14148185      50.04822920
C       50.46502470      49.98906847      50.08957245
C       49.64844688      51.18369499      49.96464565
O       50.27133434      52.40334750      50.01315911
C       48.21718712      51.10696397      49.83771653
C       47.52981331      49.85596542      49.80860150
C       48.38665488      48.67344471      50.17989255
C       49.79918745      48.74725562      50.13298206
O       52.39481830      51.25025445      50.10083358
O       52.72242549      49.08496057      50.04991031
H       51.31917680      52.15528999      50.06824142
H       47.71070409      52.01258448      49.53813798
H       46.45143311      49.74238065      49.74636789
H       47.91817692      47.73065460      50.31272188
H       50.33047869      47.94059263      50.44800551
H       53.64315647      49.33037068      50.31614749
