16
Lattice="100.0 0.0 0.0 0.0 100.0 0.0 0.0 0.0 100.0" Properties=species:S:1:pos:R:3 Energy=-310664.5 Energy_pyscf=-310659.13593434286 Energy_nn=-310662.25 pbc="F F F"
C       52.02303988      49.94521664      50.24608434
C       50.55054283      49.82846355      50.05026622
C       49.65480182      51.03929997      50.02554181
O       50.03875293      52.32116408      50.26836865
C       48.34291099      50.84733531      49.72456728
C       47.60898649      49.55761865      49.76194972
C       48.41196227      48.50321198      50.13790950
C       49.81673011      48.63010245      50.36560009
O       52.56350167      51.00417574      49.96246257
O       52.58797513      48.77998670      50.47376922
H       50.88393925      52.29886159      50.65782474
H       47.78615366      51.65962953      49.20513887
H       46.47863219      49.44996287      49.76165305
H       48.06334829      47.48386439      49.82794573
H       50.41072738      47.68006495      50.41924585
H       53.50782073      48.84762035      50.15001729
