16
Lattice="100.0 0.0 0.0 0.0 100.0 0.0 0.0 0.0 100.0" Properties=species:S:1:pos:R:3 Energy=-310686.3125 Energy_pyscf=-310681.744040884 pbc="F F F"
C       51.82286373      50.09498713      50.30546051
C       50.37855094      50.00131287      50.30112203
C       49.62593313      51.19521270      50.15129666
O       50.13876597      52.40508620      50.02926736
C       48.23323825      51.00010920      49.94101503
C       47.64892016      49.70437015      50.05527539
C       48.49163120      48.60788961      50.28520476
C       49.88000643      48.72985657      50.13587675
O       52.47003390      51.14984088      50.30266705
O       52.43439031      48.88466887      50.35564756
H       51.14018237      52.38317717      50.22483264
H       47.56983451      51.83654756      49.60512358
H       46.61720500      49.57719398      49.95833749
H       47.93148300      47.75744541      50.23517601
H       50.56525048      47.89310990      50.37733128
H       53.38904249      48.99618170      50.15709252
