16
Lattice="100.0 0.0 0.0 0.0 100.0 0.0 0.0 0.0 100.0" Properties=species:S:1:pos:R:3 Energy=-310664.125 Energy_pyscf=-310669.1461862111 Energy_nn=-310664.8125 pbc="F F F"
C       51.84558700      50.05154766      49.92656486
C       50.38273967      49.82639207      49.65217935
C       49.65174733      51.06582634      49.52568552
O       50.14427398      52.28854356      49.48902725
C       48.26082465      50.92552789      49.75657614
C       47.53411338      49.65285558      49.92048854
C       48.24184642      48.46253064      50.00805033
C       49.65773933      48.59198676      49.99896925
O       52.27638697      51.14417001      50.34905912
O       52.56643787      48.84257209      49.86251605
H       50.94752983      52.36300024      50.01533335
H       47.71255159      51.91803154      49.72693385
H       46.56285698      49.64900893      49.60821715
H       47.81617404      47.45812298      50.07584185
H       50.35164013      47.73870782      50.02519747
H       53.45960776      49.18387752      50.05510715
