16
Lattice="100.0 0.0 0.0 0.0 100.0 0.0 0.0 0.0 100.0" Properties=species:S:1:pos:R:3 Energy=-310662.28125 Energy_pyscf=-310664.3562898566 Energy_nn=-310662.75 pbc="F F F"
C       51.92848661      49.99986037      50.19466325
C       50.42310654      50.00206326      50.38016487
C       49.53165871      51.12979235      50.12113043
O       49.99935932      52.37083599      50.06745738
C       48.19237340      50.97816043      49.82490658
C       47.62682715      49.70678763      49.94222710
C       48.53220316      48.58050294      50.02198718
C       49.79598334      48.76316795      50.39417144
O       52.56287606      50.97819441      49.80292891
O       52.43912259      48.80787525      50.36501851
H       50.97600428      52.28853896      49.99472144
H       47.60767705      51.87095653      49.61235345
H       46.60228538      49.38128553      49.85564062
H       48.23025795      47.68337624      49.97654991
H       50.46798246      47.88044893      50.32390156
H       53.38528465      49.11623547      50.11508979
