16
Lattice="100.0 0.0 0.0 0.0 100.0 0.0 0.0 0.0 100.0" Properties=species:S:1:pos:R:3 Energy=-310663.625 Energy_pyscf=-310662.3154661792 Energy_nn=-310663.875 pbc="F F F"
C       51.90616813      50.24317011      50.24964784
C       50.46296796      50.18493837      50.20118770
C       49.55969244      51.31295123      49.80344750
O       50.02416773      52.55940705      49.71965439
C       48.14362815      51.23628318      49.94050816
C       47.64098281      49.84876049      49.97689075
C       48.51596690      48.80878163      50.17668131
C       49.87884649      48.88252946      50.14675219
O       52.46672318      51.25876094      50.61292624
O       52.56276659      49.09242438      49.86722255
H       50.98385577      52.41783391      49.77674543
H       47.52597260      52.03599068      49.71959100
H       46.65130354      49.78720951      49.82810271
H       48.04116698      47.79579906      50.29031820
H       50.33251122      47.83898179      50.19407623
H       53.57742315      49.23028295      50.15921937
