16
Lattice="100.0 0.0 0.0 0.0 100.0 0.0 0.0 0.0 100.0" Properties=species:S:1:pos:R:3 Energy=-310678.53125 Energy_pyscf=-310672.9434584398 pbc="F F F"
C       51.83220562      50.03271581      50.11374096
C       50.37832408      49.90347491      50.25090598
C       49.61472999      51.07302017      50.09543625
O       50.18893688      52.26207088      50.04339281
C       48.18499476      50.79261080      50.11605051
C       47.60721326      49.55999608      49.80259532
C       48.49310566      48.46682309      49.91063766
C       49.78297786      48.56951199      50.30937938
O       52.49392305      51.00017751      49.77368617
O       52.34012926      48.76384173      50.46687543
H       51.13720865      52.17893281      50.11999141
H       47.61016590      51.72225711      50.13490836
H       46.67988777      49.55549670      49.29257183
H       47.91474572      47.53689890      49.87890845
H       50.41886332      47.69185154      50.35842773
H       53.29804319      48.93993289      50.51025208
