16
Lattice="100.0 0.0 0.0 0.0 100.0 0.0 0.0 0.0 100.0" Properties=species:S:1:pos:R:3 Energy=-310683.25 Energy_pyscf=-310681.70276263374 pbc="F F F"
C       51.81993543      50.16322016      50.01435094
C       50.37009885      49.95991378      49.89247607
C       49.52171435      51.13475013      49.73376994
O       50.10063969      52.33121076      49.85321645
C       48.10938451      51.04259109      49.69106342
C       47.57041087      49.81064928      49.89608221
C       48.33276692      48.58010273      50.01457374
C       49.72595858      48.69194109      49.80807690
O       52.54870994      51.20790835      49.97761532
O       52.46445711      48.96536063      50.17955204
H       51.04756956      52.27855278      50.08791812
H       47.45789777      51.94080002      49.69179734
H       46.47758926      49.82538336      49.63074724
H       47.69494700      47.67032741      49.99604632
H       50.29215265      47.76366458      49.59670345
H       53.45887950      49.26329537      50.30778367
