16
Lattice="100.0 0.0 0.0 0.0 100.0 0.0 0.0 0.0 100.0" Properties=species:S:1:pos:R:3 Energy=-310675.3125 Energy_pyscf=-310668.5587109537 pbc="F F F"
C       51.99917070      49.91983105      49.89597820
C       50.41580210      49.92521974      49.89161629
C       49.59410626      51.13063455      49.81609776
O       50.11964388      52.37421325      49.73659782
C       48.19866727      50.89508105      49.88070804
C       47.73804899      49.60087599      49.76808648
C       48.47363862      48.46464953      49.85712541
C       49.92643103      48.62952050      49.72738477
O       52.77731685      50.78518789      49.48126898
O       52.49702661      48.97114358      50.77826654
H       51.08714451      52.28877893      49.69068890
H       47.43165707      51.73847507      49.89084456
H       46.57670544      49.56448489      49.72360450
H       47.89150806      47.43668343      49.89479164
H       50.64164691      47.71625094      49.51553275
H       53.41625703      49.21952347      50.87334448
