16
Lattice="100.0 0.0 0.0 0.0 100.0 0.0 0.0 0.0 100.0" Properties=species:S:1:pos:R:3 Energy=-310648.96875 Energy_pyscf=-310642.7545796089 Energy_nn=-310655.21875 pbc="F F F"
C       51.96347232      50.13597445      49.79863957
C       50.50966601      49.93177153      49.48877266
C       49.56001494      51.00206019      49.65643188
O       50.28453997      52.14642299      49.71005740
C       48.19153476      51.08087062      49.76921259
C       47.65949231      49.72530811      49.83519726
C       48.43776979      48.66098531      49.61112082
C       49.84777424      48.59984222      49.40121462
O       52.49352904      51.20090942      49.43077821
O       52.44380355      49.19713279      50.65099780
H       51.22443278      51.96848774      49.27313100
H       47.57176547      51.95398039      49.79861084
H       46.59645390      49.66159570      50.09434120
H       48.18255977      47.60624550      49.51007976
H       50.27482217      47.66214857      49.35527172
H       53.30989947      49.17556965      50.65105628
