16
Lattice="100.0 0.0 0.0 0.0 100.0 0.0 0.0 0.0 100.0" Properties=species:S:1:pos:R:3 Energy=-310647.375 Energy_pyscf=-310640.19678161765 Energy_nn=-310654.125 pbc="F F F"
C       52.02028211      50.05107715      49.70381335
C       50.42425957      49.88051190      49.47762007
C       49.68199699      51.14201660      49.73262138
O       50.17779820      52.44450382      49.33935464
C       48.28424786      51.02028231      49.80529552
C       47.77215632      49.73301321      49.60131624
C       48.45191930      48.50786437      49.55461024
C       49.80221010      48.60082437      49.28729415
O       52.64062492      51.11026140      49.44201026
O       52.41508563      48.98860888      50.37886593
H       51.11831058      52.37057179      49.14912744
H       47.64608941      51.71827519      50.22346796
H       46.72043110      49.58016422      49.96399865
H       48.05176548      47.45508458      49.69248994
H       50.43331133      47.60115973      49.34979401
H       53.26107694      49.03571149      51.08952460
