16
Lattice="100.0 0.0 0.0 0.0 100.0 0.0 0.0 0.0 100.0" Properties=species:S:1:pos:R:3 Energy=-310652.4375 Energy_pyscf=-310645.9595228275 Energy_nn=-310656.1875 pbc="F F F"
C       51.87120461      49.91590810      50.24528372
C       50.34359388      49.87761794      50.36543636
C       49.51549390      51.08940071      50.10647192
O       50.09318034      52.26915430      49.94540706
C       48.18501654      50.86033858      49.95197472
C       47.75386577      49.62148276      49.91949770
C       48.51229571      48.45096144      50.05034849
C       49.85787633      48.50720928      50.16173475
O       52.59487299      50.97709480      49.93893300
O       52.39141630      48.82445978      50.50971473
H       51.04006677      52.24609899      49.97961239
H       47.54266678      51.76661622      49.97477655
H       46.81073078      49.54398047      49.65482881
H       47.82421454      47.66495902      49.66969679
H       50.28495871      47.50062872      50.13581668
H       53.33255790      48.97896183      50.51412978
