16
Lattice="100.0 0.0 0.0 0.0 100.0 0.0 0.0 0.0 100.0" Properties=species:S:1:pos:R:3 Energy=-310682.09375 Energy_pyscf=-310677.1793205724 pbc="F F F"
C       51.77472513      50.18526841      50.22285573
C       50.38665828      50.03689957      50.28388939
C       49.62267292      51.24001240      50.07326000
O       50.15235974      52.40361319      50.11402395
C       48.20584860      51.12553786      49.83881710
C       47.62680329      49.85608615      49.91288430
C       48.36430381      48.58885781      50.25371656
C       49.79859329      48.71216204      50.27612831
O       52.43564864      51.30957686      50.22068974
O       52.45453123      48.96076127      50.08000193
H       51.29299074      52.24801069      50.06755467
H       47.55041948      51.90412296      49.57786739
H       46.57024100      49.70129218      49.75102187
H       47.99460891      47.58744526      50.41321861
H       50.50609682      47.79020388      50.34028774
H       53.35557284      49.22390891      50.40736776
