16
Lattice="100.0 0.0 0.0 0.0 100.0 0.0 0.0 0.0 100.0" Properties=species:S:1:pos:R:3 Energy=-310671.625 Energy_pyscf=-310677.86412545847 Energy_nn=-310670.75 pbc="F F F"
C       51.88970098      50.18574765      50.14864053
C       50.49099995      49.89909011      49.96766144
C       49.70351316      51.11787372      49.77746384
O       50.29953536      52.32322656      49.77070235
C       48.33276334      51.02777984      49.78855355
C       47.77897177      49.74765095      49.87275552
C       48.50268350      48.59253475      49.97112334
C       49.82294551      48.68490494      49.93573063
O       52.45350403      51.27840662      50.13921827
O       52.54706190      49.02085179      50.25174683
H       51.30387412      52.08463031      49.93305377
H       47.78765595      52.03082138      49.79760329
H       46.74536213      49.49041995      49.83117269
H       48.10584644      47.66380119      49.63780227
H       50.41751949      47.75509113      49.95255831
H       53.44022441      49.20185897      50.23090609
