16
Lattice="100.0 0.0 0.0 0.0 100.0 0.0 0.0 0.0 100.0" Properties=species:S:1:pos:R:3 Energy=-310686.84375 Energy_pyscf=-310686.6522779522 Energy_nn=-310687.15625 pbc="F F F"
C       51.89153952      50.15789046      50.15821670
C       50.45749450      49.97265780      49.85229818
C       49.67708444      51.15172220      49.80321528
O       50.17776341      52.44673385      49.86617726
C       48.24346672      51.08174685      49.88763318
C       47.64223889      49.77381180      49.92812545
C       48.43339760      48.62670745      49.95429579
C       49.77423965      48.70712221      49.88639858
O       52.53546731      51.22813084      50.09237853
O       52.54787754      48.95841966      50.35200973
H       51.16760447      52.41529044      50.04218721
H       47.70564843      52.01773119      50.01573410
H       46.61252074      49.97310519      50.18435670
H       47.96340019      47.63367587      49.94402588
H       50.40608778      47.80948694      49.78984694
H       53.49433397      49.15593676      50.11635654
