16
Lattice="100.0 0.0 0.0 0.0 100.0 0.0 0.0 0.0 100.0" Properties=species:S:1:pos:R:3 Energy=-310660.78125 Energy_pyscf=-310663.72626847174 Energy_nn=-310661.40625 pbc="F F F"
C       51.83776738      50.04518938      50.19249068
C       50.36435414      49.81453142      50.35586991
C       49.57799047      50.99389608      50.06907502
O       50.00477614      52.29498276      50.32517673
C       48.20647569      50.72362462      49.72108317
C       47.53612760      49.52019935      49.88934106
C       48.24829803      48.43227977      50.33047265
C       49.65193204      48.61100506      50.42763510
O       52.50105127      51.05610004      50.24048813
O       52.53067389      48.87439395      50.00416874
H       50.87912237      52.45567085      50.10717912
H       47.65551883      51.75445228      49.68397003
H       46.57834026      49.32654888      49.41083814
H       47.80378300      47.42202186      50.45894972
H       50.15242474      47.73360798      50.41800616
H       53.40571634      49.15553011      50.13065580
