16
Lattice="100.0 0.0 0.0 0.0 100.0 0.0 0.0 0.0 100.0" Properties=species:S:1:pos:R:3 Energy=-310696.03125 Energy_pyscf=-310694.38980878924 Energy_nn=-310693.375 pbc="F F F"
C       51.88032236      50.11452960      50.11184195
C       50.45135594      49.96091999      49.86126027
C       49.64011337      51.15001470      49.83864450
O       50.18087101      52.37611471      49.82761966
C       48.26640811      51.07054333      49.93544223
C       47.64536686      49.84328999      49.95737147
C       48.41638844      48.63128547      49.96538203
C       49.80383624      48.68134677      49.92496448
O       52.48171993      51.21559318      50.09475399
O       52.63830643      48.94539025      50.20600575
H       51.17026940      52.31738896      50.01534845
H       47.77044167      52.01860602      50.11293103
H       46.54944948      49.94708916      50.00938794
H       47.84789264      47.67900344      49.98729111
H       50.47521285      47.81299332      49.74976680
H       53.52004153      49.36054093      50.26491328
