16
Lattice="100.0 0.0 0.0 0.0 100.0 0.0 0.0 0.0 100.0" Properties=species:S:1:pos:R:3 Energy=-310685.5 Energy_pyscf=-310680.2473110929 pbc="F F F"
C       51.86153533      49.90922064      50.07980641
C       50.43100287      49.88240865      50.07125809
C       49.57151278      51.02238499      50.07789756
O       50.11160011      52.23309397      49.91103720
C       48.11184689      50.87006577      49.87145919
C       47.54831289      49.59407586      49.86232811
C       48.45460664      48.50650153      50.01707634
C       49.83815940      48.61037030      50.11362963
O       52.51406175      50.99094127      50.23485372
O       52.52693813      48.71280063      50.16749348
H       51.04886085      52.12669543      50.15955422
H       47.54664308      51.73176839      49.91391541
H       46.55489363      49.46227853      49.58765674
H       47.88613629      47.58756482      49.91102885
H       50.33260884      47.64826069      50.28965932
H       53.36077565      48.95136136      50.62874514
