16
Lattice="100.0 0.0 0.0 0.0 100.0 0.0 0.0 0.0 100.0" Properties=species:S:1:pos:R:3 Energy=-310657.3125 Energy_pyscf=-310653.2713402124 Energy_nn=-310655.6875 pbc="F F F"
C       51.86588007      50.06466150      50.25332526
C       50.46905470      49.97084871      50.01309681
C       49.63161585      51.20549209      50.11492556
O       50.20280242      52.39272313      50.01331015
C       48.11531815      50.97711761      50.18770936
C       47.53516580      49.68243104      50.19435175
C       48.49740925      48.65617039      50.21422020
C       49.81613858      48.78028847      50.12613282
O       52.57747469      51.11124442      50.03778654
O       52.50816451      48.91429840      50.44319666
H       51.11105101      52.18302877      50.13142590
H       47.58769155      51.90364438      49.76499514
H       46.40699062      49.59275665      49.85220511
H       47.97042182      47.76366816      50.06853769
H       50.54364716      47.89026476      50.48804240
H       53.48933150      49.16911763      50.46671993
