16
Lattice="100.0 0.0 0.0 0.0 100.0 0.0 0.0 0.0 100.0" Properties=species:S:1:pos:R:3 Energy=-310674.3125 Energy_pyscf=-310671.37421859044 Energy_nn=-310677.0 pbc="F F F"
C       51.86894411      50.09083303      50.07151665
C       50.39867225      50.01603926      50.11544877
C       49.55273159      51.21915880      50.04790150
O       50.14160938      52.48615994      50.16755271
C       48.16949634      51.06209043      49.92985412
C       47.68168657      49.74428989      49.92658783
C       48.49084732      48.56731826      50.24326936
C       49.78752446      48.77280958      50.28910108
O       52.60904433      51.12917773      50.28543249
O       52.48004963      48.94193742      50.13527601
H       51.07770789      52.28068517      49.91796093
H       47.48067529      51.89733142      49.65479720
H       46.60627341      49.85052687      49.73501832
H       47.92754185      47.61544885      50.40757792
H       50.49382388      47.94076146      50.26388776
H       53.27922339      49.26319113      50.62088536
