16
Lattice="100.0 0.0 0.0 0.0 100.0 0.0 0.0 0.0 100.0" Properties=species:S:1:pos:R:3 Energy=-310673.34375 Energy_pyscf=-310675.3856393691 Energy_nn=-310674.25 pbc="F F F"
C       51.95232000      50.11682661      50.00195499
C       50.44128114      49.91449672      50.00030184
C       49.73158834      51.17031038      49.83062254
O       50.23337577      52.43775426      49.79690126
C       48.27022626      51.03528907      49.97736290
C       47.60651550      49.78757672      49.99414582
C       48.33088809      48.57364498      49.84309300
C       49.70579502      48.68932222      49.90902730
O       52.46417491      51.26376032      49.96008813
O       52.71173206      49.04071897      50.35721000
H       51.19943627      52.34551087      50.01671378
H       47.66462294      51.85585098      50.11335588
H       46.58005737      49.95571297      50.05628066
H       47.68302785      47.73821808      49.97064376
H       50.43355352      47.88464055      49.67228556
H       53.70913823      49.26653665      50.32398831
