16
Lattice="100.0 0.0 0.0 0.0 100.0 0.0 0.0 0.0 100.0" Properties=species:S:1:pos:R:3 Energy=-310683.0 Energy_pyscf=-310677.4153837793 pbc="F F F"
C       51.91697945      50.15638894      50.17434650
C       50.45076073      49.94023979      49.89787884
C       49.75333871      51.14893655      49.83965571
O       50.23053532      52.37157721      49.88683012
C       48.37614021      51.01154241      49.93077679
C       47.67096916      49.80583277      49.95823664
C       48.39463799      48.64875822      49.94572270
C       49.79419052      48.73340877      49.90841517
O       52.40896273      51.25345831      49.90401810
O       52.57253113      49.02773276      50.37546475
H       51.20536999      52.39685018      50.01393304
H       47.71218248      51.82491324      50.09373215
H       46.58887042      49.91149642      50.01423880
H       47.71096426      47.71422197      50.00568988
H       50.43114616      47.90020908      49.68314325
H       53.54348635      49.22719035      50.20771002
