16
Lattice="100.0 0.0 0.0 0.0 100.0 0.0 0.0 0.0 100.0" Properties=species:S:1:pos:R:3 Energy=-310687.59375 Energy_pyscf=-310686.20161338017 Energy_nn=-310687.625 pbc="F F F"
C       51.90401141      50.13530949      50.16839028
C       50.42747357      49.97212455      49.97412811
C       49.69068391      51.15504910      49.84264397
O       50.26380274      52.33185514      49.83003246
C       48.28098413      51.05442491      49.85968165
C       47.61204433      49.77980008      49.94107426
C       48.41805218      48.62478535      49.95748322
C       49.74772274      48.71875265      49.92360958
O       52.45038499      51.23071143      50.17945269
O       52.63873544      49.00855469      50.13888228
H       51.26836035      52.25579095      49.91872310
H       47.74115848      51.96639237      50.14478690
H       46.46220508      49.93192414      50.03717437
H       47.93503714      47.70680608      50.02178460
H       50.36366852      47.83729862      49.69726594
H       53.54553174      49.38608904      50.23166606
