16
Lattice="100.0 0.0 0.0 0.0 100.0 0.0 0.0 0.0 100.0" Properties=species:S:1:pos:R:3 Energy=-310657.90625 Energy_pyscf=-310652.0715470149 Energy_nn=-310657.90625 pbc="F F F"
C       51.82395487      49.92709677      50.22070063
C       50.28864183      49.71457809      50.37086582
C       49.57396990      50.91448397      50.01937271
O       49.93649191      52.20434622      50.16104213
C       48.15741160      50.89479476      49.71766503
C       47.50372827      49.63074847      49.98323080
C       48.31513784      48.50767885      50.11905210
C       49.72193465      48.50610990      50.40385872
O       52.36010275      51.10665781      50.19326457
O       52.46856047      48.81899113      50.14691764
H       50.81173708      52.47833177      50.12499958
H       47.66564468      51.90261146      49.68046832
H       46.54916626      49.35592346      49.64498034
H       47.89054656      47.47182294      50.41541693
H       50.38451915      47.57468220      50.34140248
H       53.48174939      49.13965873      50.18027339
