9
Lattice="100.0 0.0 0.0 0.0 100.0 0.0 0.0 0.0 100.0" Properties=species:S:1:pos:R:3 Energy=-167300.92726403344 pbc="F F F"
C       49.43897280      49.04137927      50.96536148
C       49.29456419      49.64761195      49.61618650
C       50.64544177      50.36678454      49.14660368
O       50.62174429      51.43716001      48.41786017
O       50.46979919      48.56283999      51.46356043
H       48.42960852      48.91607812      51.58213983
H       49.21073616      48.68567226      48.93317079
H       48.34746083      50.40987890      49.39706282
H       51.65253917      49.93741454      49.55948262
