9
Lattice="100.0 0.0 0.0 0.0 100.0 0.0 0.0 0.0 100.0" Properties=species:S:1:pos:R:3 Energy=-167301.6641451081 pbc="F F F"
C       49.73207545      49.54169575      50.90659128
C       49.31167233      49.72008930      49.56169441
C       50.59789773      50.39122957      49.08349271
O       50.70338148      51.42336767      48.45203757
O       50.44009214      48.57663233      51.22351556
H       49.34857642      50.44831715      51.54796243
H       49.30755668      48.81689123      48.85564799
H       48.38437438      50.40757903      49.50520063
H       51.61562562      49.79664880      49.29424922
