9
Lattice="100.0 0.0 0.0 0.0 100.0 0.0 0.0 0.0 100.0" Properties=species:S:1:pos:R:3 Energy=-167298.4190646571 pbc="F F F"
C       50.49605506      49.50070286      51.13743178
C       49.46567516      50.19392234      50.34308791
C       49.97055402      51.00065480      49.23457034
O       51.10976814      50.97557513      48.91606156
O       50.18564790      48.41701767      51.55976238
H       51.55409574      49.95184767      51.33737405
H       48.93990764      49.52270573      49.63285519
H       48.44590426      50.55454302      50.83824613
H       49.25062448      51.58298233      48.44023762
