9
Lattice="100.0 0.0 0.0 0.0 100.0 0.0 0.0 0.0 100.0" Properties=species:S:1:pos:R:3 Energy=-167302.99707887115 pbc="F F F"
C       50.54849747      49.23252202      50.79423693
C       49.72570658      50.51556156      50.37236798
C       50.13135661      50.87043840      48.99837800
O       51.27935463      51.35773956      48.75015946
O       50.38851061      48.64226044      51.83420166
H       51.24895653      48.86738251      49.97108179
H       48.72064537      50.04345498      50.34064139
H       50.00975102      51.29861158      51.28081618
H       49.36649225      50.55273608      48.16579834
