9
Lattice="100.0 0.0 0.0 0.0 100.0 0.0 0.0 0.0 100.0" Properties=species:S:1:pos:R:3 Energy=-167298.61861013094 pbc="F F F"
C       50.33847023      48.96896915      50.76546975
C       49.45277793      49.88838566      50.18562926
C       49.87486690      50.85327279      49.11606732
O       50.91021920      50.67394206      48.46073563
O       49.95322630      48.09941331      51.53926437
H       51.40083786      49.10372945      50.45807462
H       48.94175166      49.11147494      49.41985909
H       48.59916214      50.21357467      50.91003120
H       49.35701788      51.90058669      49.29536092
