9
Lattice="100.0 0.0 0.0 0.0 100.0 0.0 0.0 0.0 100.0" Properties=species:S:1:pos:R:3 Energy=-167293.83322286984 pbc="F F F"
C       49.94941781      49.29171185      51.01424991
C       49.87886281      49.69560914      49.55744390
C       50.83023391      51.01273876      49.34388522
O       51.24138612      51.22988015      48.20656925
O       50.93346494      48.48892428      51.33539560
H       49.46725060      50.08653471      51.79343075
H       50.44903165      48.94651125      48.88226179
H       48.75861388      49.93310682      49.20153116
H       51.16905862      51.51107572      50.26009139
