9
Lattice="100.0 0.0 0.0 0.0 100.0 0.0 0.0 0.0 100.0" Properties=species:S:1:pos:R:3 Energy=-167300.67564038243 pbc="F F F"
C       50.12149547      49.33041439      51.09324339
C       49.50577444      50.60655046      50.44111508
C       50.38671742      50.86374842      49.27981845
O       51.50101874      51.39755694      49.56712381
O       51.12221798      49.24359518      51.77403877
H       49.50123328      48.41191494      50.67338998
H       48.49898126      50.35759814      50.11038862
H       49.48801558      51.58808506      51.22211400
H       50.03524251      50.62951299      48.22596123
