9
Lattice="100.0 0.0 0.0 0.0 100.0 0.0 0.0 0.0 100.0" Properties=species:S:1:pos:R:3 Energy=-167301.79366035774 pbc="F F F"
C       49.53201431      48.89323393      50.92864000
C       49.39170429      49.79107514      49.69827667
C       50.53473091      50.36305900      48.89574382
O       50.73465139      51.50149420      48.43220498
O       50.46644816      48.49850580      51.56779502
H       48.56444876      48.69525802      51.27826590
H       48.83055431      49.12707550      49.07385276
H       48.62366424      50.42757073      50.03268063
H       51.43555124      49.69795661      48.64068327
