9
Lattice="100.0 0.0 0.0 0.0 100.0 0.0 0.0 0.0 100.0" Properties=species:S:1:pos:R:3 Energy=-167295.78016486092 pbc="F F F"
C       50.00446262      49.00304316      50.86415144
C       50.12101403      50.44963728      50.21352702
C       50.51210548      50.85972955      48.78628517
O       50.92777891      51.95468088      48.56061710
O       50.34786921      48.88129026      52.00444760
H       49.82449292      48.04531912      50.29413485
H       49.07222109      50.47979947      49.92566230
H       50.08414932      51.13401104      51.16197239
H       50.35853327      49.99985927      47.99555240
