9
Lattice="100.0 0.0 0.0 0.0 100.0 0.0 0.0 0.0 100.0" Properties=species:S:1:pos:R:3 Energy=-167302.31841941873 pbc="F F F"
C       50.35870834      48.86399860      50.55359860
C       49.33882627      49.77189369      50.00713662
C       50.05237666      50.76287995      49.14422510
O       51.05244057      50.38508384      48.52007212
O       50.30541996      48.04189651      51.47992788
H       51.33676842      49.10127846      50.14329904
H       48.69594216      49.15420477      49.37882246
H       48.66323158      50.01517046      50.79293820
H       49.62620396      51.95810349      49.09053371
