9
Lattice="100.0 0.0 0.0 0.0 100.0 0.0 0.0 0.0 100.0" Properties=species:S:1:pos:R:3 Energy=-167301.237833597 pbc="F F F"
C       50.23748741      48.73191195      50.60186987
C       49.63357388      50.02806999      50.10453320
C       50.41616124      51.03649971      49.12843607
O       51.20779634      51.08760427      48.22080485
O       50.48029043      48.43034725      51.77919515
H       50.47236611      48.05736437      49.70333360
H       48.79220366      49.81436824      49.48816673
H       49.14253979      50.68840312      50.89355918
H       49.93304808      51.94263563      49.46474141
