9
Lattice="100.0 0.0 0.0 0.0 100.0 0.0 0.0 0.0 100.0" Properties=species:S:1:pos:R:3 Energy=-167301.80503902782 pbc="F F F"
C       50.21683046      48.91264659      50.55069108
C       49.66081617      50.31080657      50.05615492
C       50.41560833      51.15911327      49.05245600
O       51.44201656      51.23396056      48.41177268
O       50.79886140      48.81715663      51.58822732
H       50.03406855      48.08282056      49.76590473
H       48.55798344      50.15812356      49.64462715
H       49.70659089      51.06345956      50.87484577
H       49.65107506      51.91717944      48.79430359
