9
Lattice="100.0 0.0 0.0 0.0 100.0 0.0 0.0 0.0 100.0" Properties=species:S:1:pos:R:3 Energy=-167304.4754374157 pbc="F F F"
C       49.38110250      49.00919858      50.96985950
C       49.41000837      49.58564283      49.67807366
C       50.68097370      50.35853662      49.19064266
O       50.52051343      51.39293908      48.51643839
O       50.41971719      48.60706092      51.48356161
H       48.32611177      48.82952099      51.38442571
H       49.24771843      48.68689259      48.93907957
H       48.43227544      49.96332953      49.45293805
H       51.67388823      49.95554074      49.41274558
