9
Lattice="100.0 0.0 0.0 0.0 100.0 0.0 0.0 0.0 100.0" Properties=species:S:1:pos:R:3 Energy=-167303.12695873636 pbc="F F F"
C       49.85265846      48.66753282      50.96431841
C       49.64821256      49.74982864      49.80036241
C       50.63212054      50.81946607      49.45654407
O       51.15194237      51.01004389      48.34994657
O       50.81544611      48.42094978      51.65005343
H       48.84805763      48.32180303      51.06927405
H       49.24097505      49.09689887      48.99150583
H       48.87238245      50.31993624      50.31477418
H       50.82104335      51.67819697      50.31945231
