9
Lattice="100.0 0.0 0.0 0.0 100.0 0.0 0.0 0.0 100.0" Properties=species:S:1:pos:R:3 Energy=-167296.1984981902 pbc="F F F"
C       50.37153236      48.64944485      50.90655823
C       49.71001547      49.89168616      50.18998385
C       50.30786035      50.96535617      49.30365338
O       50.69798871      50.96197875      48.17395641
O       49.79565630      48.14998583      51.82604359
H       51.33270811      48.16708078      50.63791993
H       48.66729189      49.37429326      49.73565311
H       49.30879907      50.41297583      51.11617726
H       50.11887347      51.85001417      49.84300368
