9
Lattice="100.0 0.0 0.0 0.0 100.0 0.0 0.0 0.0 100.0" Properties=species:S:1:pos:R:3 Energy=-167290.76938234127 pbc="F F F"
C       50.39299701      48.96007911      50.70830417
C       49.34492045      50.01106640      49.97055248
C       50.37699636      50.97803685      49.47747808
O       50.90069526      50.79852834      48.34224639
O       50.23815826      48.34398926      51.65775361
H       51.37037028      49.22399014      49.99235127
H       48.99254428      49.40147636      49.12407763
H       48.62962972      50.59759267      50.60292545
H       50.88390140      51.65601074      50.30409743
