9
Lattice="100.0 0.0 0.0 0.0 100.0 0.0 0.0 0.0 100.0" Properties=species:S:1:pos:R:3 Energy=-167303.9782689084 pbc="F F F"
C       50.31418026      48.61208123      50.32070652
C       49.45291866      49.73868787      50.00950316
C       50.45624265      50.79522294      49.30626231
O       51.24317048      50.35369849      48.53422695
O       50.71336880      48.37616493      51.46577305
H       50.73112858      48.04313383      49.39342164
H       48.90989009      49.40579889      49.08022966
H       48.75682952      50.22186627      50.77587736
H       50.41620404      51.95686617      49.71745510
