9
Lattice="100.0 0.0 0.0 0.0 100.0 0.0 0.0 0.0 100.0" Properties=species:S:1:pos:R:3 Energy=-167303.54065090584 pbc="F F F"
C       50.27235489      49.71813850      51.16171914
C       49.43355093      49.98985691      49.91221707
C       50.62916960      50.26164891      49.04326802
O       51.02089248      51.43896331      48.97370805
O       50.58933580      48.56103669      51.41828125
H       50.71293357      50.73714481      51.34625893
H       48.82660719      49.10405837      49.67508173
H       48.95760042      50.95687173      49.93218548
H       51.17339281      49.39770157      48.58171875
