9
Lattice="100.0 0.0 0.0 0.0 100.0 0.0 0.0 0.0 100.0" Properties=species:S:1:pos:R:3 Energy=-167302.31066585958 pbc="F F F"
C       49.92805387      49.01106744      50.53839065
C       49.53568832      50.25492774      49.94076809
C       50.56947048      50.73373436      48.90979118
O       50.43016593      51.73907850      48.25672077
O       49.93056711      48.85790860      51.74327923
H       50.14951381      48.26092150      49.78743033
H       48.57742087      49.83348700      49.55384051
H       49.26711961      51.06449918      50.73570048
H       51.42257913      49.87235039      48.70867825
