9
Lattice="100.0 0.0 0.0 0.0 100.0 0.0 0.0 0.0 100.0" Properties=species:S:1:pos:R:3 Energy=-167294.24595630332 pbc="F F F"
C       50.41113320      48.83034797      50.45758434
C       49.78212303      50.11365758      50.14150153
C       50.16921073      50.92728573      49.00848116
O       51.22189978      50.88303199      48.38024588
O       50.39286052      48.41021068      51.61975412
H       50.63402951      48.04417497      49.66001435
H       48.77810022      49.73629159      50.48214567
H       49.85657064      50.95968899      50.88503926
H       49.69288245      51.95582503      48.84937052
