9
Lattice="100.0 0.0 0.0 0.0 100.0 0.0 0.0 0.0 100.0" Properties=species:S:1:pos:R:3 Energy=-167287.72722856462 pbc="F F F"
C       50.01757682      49.28233296      51.06475141
C       49.96955491      49.72764848      49.66066237
C       50.20869737      51.01061099      49.05536274
O       50.95058791      51.07146352      48.15013303
O       50.29052194      48.09480315      51.33402328
H       49.63992907      49.80757291      51.84986697
H       50.68550851      49.18105766      48.85855042
H       49.04941209      49.15094773      49.26482726
H       49.61704621      51.90519685      49.46759463
