9
Lattice="100.0 0.0 0.0 0.0 100.0 0.0 0.0 0.0 100.0" Properties=species:S:1:pos:R:3 Energy=-167302.16159521596 pbc="F F F"
C       50.38392485      49.02451873      50.68998146
C       49.38885702      49.96218522      50.13771167
C       49.95986867      50.98848102      49.00744494
O       51.00082475      50.69694691      48.48355533
O       50.08377440      48.16072784      51.51644467
H       51.36902116      48.99039395      50.27827536
H       48.99762323      49.20045965      49.33050526
H       48.63097884      50.46614155      50.86592489
H       49.36323160      51.83927216      48.71654901
