9
Lattice="100.0 0.0 0.0 0.0 100.0 0.0 0.0 0.0 100.0" Properties=species:S:1:pos:R:3 Energy=-167301.7317835574 pbc="F F F"
C       50.53172579      49.54085690      51.11795748
C       49.46694580      50.47808132      50.54513474
C       50.08390928      50.85161000      49.15842277
O       51.19805872      51.30898559      49.18690070
O       50.35410871      48.62819098      51.90789547
H       51.50382790      49.94041420      50.74163045
H       48.49617210      50.10902276      50.47002996
H       49.20439850      51.37180902      51.15281338
H       49.42210231      50.85696685      48.09210453
