9
Lattice="100.0 0.0 0.0 0.0 100.0 0.0 0.0 0.0 100.0" Properties=species:S:1:pos:R:3 Energy=-167295.30092828462 pbc="F F F"
C       50.41827830      49.36441802      50.79499263
C       49.54118198      49.88247972      49.48642359
C       50.20669242      50.83929933      48.65864404
O       51.33357072      50.81581512      48.31641322
O       50.59278432      48.16237632      50.83353640
H       50.70592494      50.13484388      51.68358678
H       49.32609493      48.91909082      48.92023919
H       48.66642928      50.39563525      49.88712652
H       49.70334869      51.83762368      48.80966557
