9
Lattice="100.0 0.0 0.0 0.0 100.0 0.0 0.0 0.0 100.0" Properties=species:S:1:pos:R:3 Energy=-167302.3816415134 pbc="F F F"
C       49.40449265      49.12530661      50.80704205
C       49.39737302      50.19966327      49.73170262
C       50.58423009      50.99390634      49.29537573
O       50.43852641      51.76254306      48.35197257
O       50.27509156      49.09490493      51.64802743
H       48.57778670      48.23745694      50.79094854
H       48.58314696      50.05745692      48.83975819
H       48.75469008      50.92727715      50.32631501
H       51.42221330      50.67938455      49.98666418
