9
Lattice="100.0 0.0 0.0 0.0 100.0 0.0 0.0 0.0 100.0" Properties=species:S:1:pos:R:3 Energy=-167305.5949061529 pbc="F F F"
C       50.16743597      49.66373744      50.99776960
C       49.45735389      49.91602527      49.64215374
C       50.66726829      50.24374437      48.78404855
O       51.08968200      51.42990485      48.78421673
O       50.71993191      48.57009515      51.12857612
H       50.18674022      50.54949656      51.73883305
H       49.02301107      48.87604711      49.37486537
H       48.72928391      50.84973476      49.50044699
H       51.27071609      49.50402382      48.26116695
