9
Lattice="100.0 0.0 0.0 0.0 100.0 0.0 0.0 0.0 100.0" Properties=species:S:1:pos:R:3 Energy=-167299.3576696236 pbc="F F F"
C       50.43544873      49.14899366      50.82655688
C       49.31300881      49.80862060      50.14967783
C       49.94779953      50.78743592      49.19068108
O       51.01368700      50.51472715      48.64707966
O       50.10849238      48.11895575      51.35292034
H       51.51187767      49.55773643      50.97616645
H       48.48812233      49.13313096      49.64616496
H       48.65177275      50.12167819      51.01140129
H       49.56235708      51.88104425      49.05734459
