9
Lattice="100.0 0.0 0.0 0.0 100.0 0.0 0.0 0.0 100.0" Properties=species:S:1:pos:R:3 Energy=-167294.56408475066 pbc="F F F"
C       50.24501206      49.63398576      51.25957227
C       49.61588869      50.01776627      49.97027377
C       50.59541882      50.39118837      48.88279854
O       51.24282555      51.39338430      49.16052741
O       50.80952259      48.60661570      51.35131009
H       50.24731800      50.43811268      51.98611592
H       48.77336996      49.17239491      49.70932405
H       48.75717445      50.83525039      50.15078709
H       50.88331116      49.84903202      48.01388408
