9
Lattice="100.0 0.0 0.0 0.0 100.0 0.0 0.0 0.0 100.0" Properties=species:S:1:pos:R:3 Energy=-167301.3623822183 pbc="F F F"
C       49.90286952      49.48837654      51.07265353
C       49.22621660      49.85960339      49.75043834
C       50.51970115      50.36667416      48.78270294
O       50.75655996      51.56198888      48.60838122
O       50.31849238      48.43801112      51.40302386
H       50.06167612      50.38549176      51.68372329
H       48.71073661      48.94202968      49.23056266
H       48.67894028      50.77306006      50.08461600
H       51.32105972      49.58103954      48.31627671
