9
Lattice="100.0 0.0 0.0 0.0 100.0 0.0 0.0 0.0 100.0" Properties=species:S:1:pos:R:3 Energy=-167302.37193864002 pbc="F F F"
C       50.26563407      48.89553754      50.72990192
C       49.64739256      50.05414593      49.91569820
C       50.68699365      50.44307538      48.77092542
O       50.58483265      51.59827726      48.22216899
O       49.95512030      48.40172274      51.77783101
H       51.21087222      48.61430509      50.20512027
H       48.61785528      49.72082136      49.48608047
H       49.60445522      51.03524564      50.54217475
H       51.38214472      49.63682596      48.46990454
