9
Lattice="100.0 0.0 0.0 0.0 100.0 0.0 0.0 0.0 100.0" Properties=species:S:1:pos:R:3 Energy=-167299.8408059216 pbc="F F F"
C       50.39874203      48.71182665      50.46030757
C       49.86357190      50.05891507      50.12124166
C       50.20111911      50.95980741      49.00519351
O       51.21475828      50.79049742      48.38409061
O       50.41448418      48.36638438      51.61590939
H       50.61928857      48.05817760      49.39241408
H       48.78524172      49.99355942      50.40130665
H       50.15191462      50.75875065      50.91067277
H       49.72545160      51.94182240      48.95331130
