9
Lattice="100.0 0.0 0.0 0.0 100.0 0.0 0.0 0.0 100.0" Properties=species:S:1:pos:R:3 Energy=-167303.01443435997 pbc="F F F"
C       50.59623830      49.40704983      51.10336454
C       49.80224080      49.99010943      49.87711512
C       50.73158720      51.06832226      49.33738740
O       51.22221234      51.25168420      48.26175933
O       50.52354913      48.30972159      51.59671960
H       51.15116399      50.15665688      51.73824067
H       49.49317310      49.05514273      49.19914495
H       48.77778766      50.56907209      50.08231415
H       50.96046298      51.69027841      50.23477061
