9
Lattice="100.0 0.0 0.0 0.0 100.0 0.0 0.0 0.0 100.0" Properties=species:S:1:pos:R:3 Energy=-167301.01205255382 pbc="F F F"
C       50.30054686      49.05980064      50.73376030
C       50.10652675      50.60187770      50.16818337
C       50.28363284      50.88933737      48.78708420
O       50.93211370      51.81843860      48.38049391
O       50.13160214      48.77639411      51.89002277
H       50.52335430      48.18156140      49.93172694
H       49.06788630      50.77994498      50.26667253
H       50.50144439      51.36263819      50.99000958
H       49.62137727      50.28643421      48.10997723
