9
Lattice="100.0 0.0 0.0 0.0 100.0 0.0 0.0 0.0 100.0" Properties=species:S:1:pos:R:3 Energy=-167296.1856624827 pbc="F F F"
C       49.65869518      49.15165816      50.73252682
C       49.38947774      50.36593587      49.83039826
C       50.62811368      51.17870084      49.55039927
O       50.78517508      51.63246507      48.39269582
O       50.55629273      49.28183803      51.60730418
H       48.68095213      48.36753493      50.70553233
H       48.63613398      50.35616094      49.04539075
H       49.03747283      51.21804443      50.49255894
H       51.36386602      51.24956877      50.32209630
