9
Lattice="100.0 0.0 0.0 0.0 100.0 0.0 0.0 0.0 100.0" Properties=species:S:1:pos:R:3 Energy=-167301.31650766946 pbc="F F F"
C       49.82624483      49.08436430      50.84860889
C       49.56641472      50.14004620      49.84911060
C       50.73074869      50.42264431      49.05833171
O       51.07284131      51.58352677      48.77048998
O       50.84518459      49.04485870      51.42341916
H       48.86830061      48.41647323      51.13546774
H       48.65754562      49.96529635      49.19371871
H       49.05171909      51.15671401      50.27421666
H       51.34245438      49.55834955      48.57658084
