9
Lattice="100.0 0.0 0.0 0.0 100.0 0.0 0.0 0.0 100.0" Properties=species:S:1:pos:R:3 Energy=-167293.63988280707 pbc="F F F"
C       49.70302600      48.97571924      50.64961819
C       49.28443074      50.30038226      50.02131342
C       50.36406451      51.11524852      49.13545677
O       50.26585892      51.75525229      48.12617502
O       49.70512920      48.88652861      51.87382498
H       49.97153522      48.24474771      49.97518790
H       48.45305659      49.93502823      49.42226753
H       48.75138593      50.83506225      50.77870271
H       51.54694341      51.15649607      49.39740526
