9
Lattice="100.0 0.0 0.0 0.0 100.0 0.0 0.0 0.0 100.0" Properties=species:S:1:pos:R:3 Energy=-167306.919739745 pbc="F F F"
C       50.28391974      49.30051874      51.16156241
C       50.08983058      49.70695748      49.77873778
C       50.60064080      50.98475679      49.20586872
O       51.02907396      51.23799053      48.10015747
O       50.34155173      48.14060057      51.48346703
H       50.34283396      50.15346447      51.89984253
H       50.24183473      48.81004290      49.05713014
H       48.97092604      49.57765615      49.66825186
H       50.35164835      51.85939943      49.84617780
