9
Lattice="100.0 0.0 0.0 0.0 100.0 0.0 0.0 0.0 100.0" Properties=species:S:1:pos:R:3 Energy=-167293.50417204908 pbc="F F F"
C       50.25994384      49.17159545      51.12263857
C       49.91978652      49.74994619      49.55766282
C       50.35245358      50.97271422      48.91402925
O       51.17842228      51.05561886      48.05858028
O       50.44289609      47.99304810      51.22132345
H       50.08752005      50.08705343      51.94141972
H       50.07503913      48.92117063      48.95436413
H       48.82157772      49.93395097      49.55382976
H       50.10284187      52.00695190      49.42004637
