9
Lattice="100.0 0.0 0.0 0.0 100.0 0.0 0.0 0.0 100.0" Properties=species:S:1:pos:R:3 Energy=-167297.99783264945 pbc="F F F"
C       50.28696228      48.90079302      50.75754774
C       49.35811124      49.90137108      50.23610048
C       49.86587975      50.91167337      49.15531605
O       50.79810291      50.69712594      48.43223899
O       49.82282254      48.15614861      51.56776101
H       51.27349520      48.73501792      50.23766197
H       48.93956320      49.11292229      49.68084907
H       48.72650480      50.18197346      50.98433719
H       49.36816358      51.84385139      49.02095575
