9
Lattice="100.0 0.0 0.0 0.0 100.0 0.0 0.0 0.0 100.0" Properties=species:S:1:pos:R:3 Energy=-167303.65250086016 pbc="F F F"
C       49.90745389      49.01781476      50.62749685
C       49.41774772      50.27421279      49.97878991
C       50.42674420      50.84929066      49.01874852
O       50.30807982      51.71392007      48.18654339
O       49.72675086      48.77602011      51.81345661
H       50.52885619      48.28607993      49.95301684
H       48.37262181      50.09225581      49.47466626
H       49.09693297      51.12507969      50.72771758
H       51.62737819      50.66486376      49.13964820
