9
Lattice="100.0 0.0 0.0 0.0 100.0 0.0 0.0 0.0 100.0" Properties=species:S:1:pos:R:3 Energy=-167296.5611587265 pbc="F F F"
C       49.59414932      49.00307433      50.54234635
C       49.47674839      50.28326553      49.88211230
C       50.39882320      50.79031738      48.81279837
O       50.28646524      51.86354665      48.24219846
O       49.86260685      48.91951923      51.75780154
H       49.89539106      48.13645335      49.79843788
H       48.74061068      50.07762065      49.02833270
H       48.95374422      51.07728052      50.47319912
H       51.25938932      49.92982278      48.57430153
