9
Lattice="100.0 0.0 0.0 0.0 100.0 0.0 0.0 0.0 100.0" Properties=species:S:1:pos:R:3 Energy=-167297.7842538976 pbc="F F F"
C       50.35965538      48.72108260      50.59192951
C       49.85900084      50.00783912      50.14648959
C       50.50651694      51.04276011      49.17106390
O       51.21987462      51.04581853      48.23752806
O       50.47396929      48.45134226      51.76247194
H       50.73391273      48.03943979      49.84001460
H       48.78012538      50.11802587      49.80495597
H       49.79393921      50.59461610      51.07002226
H       49.76601587      51.96056021      49.55694355
