9
Lattice="100.0 0.0 0.0 0.0 100.0 0.0 0.0 0.0 100.0" Properties=species:S:1:pos:R:3 Energy=-167306.23579714916 pbc="F F F"
C       50.59935333      49.69609377      51.34409833
C       49.45285161      50.40386857      50.47572554
C       50.24739747      50.64428189      49.24966078
O       51.28544461      51.32573267      49.35957431
O       50.54278439      48.59215006      51.84720377
H       51.53109910      50.36435367      51.28753528
H       48.46890090      49.93275012      50.46489804
H       49.51859028      51.40784994      51.00316070
H       50.06943328      50.23566864      48.15279623
