9
Lattice="100.0 0.0 0.0 0.0 100.0 0.0 0.0 0.0 100.0" Properties=species:S:1:pos:R:3 Energy=-167301.8986282111 pbc="F F F"
C       49.82810654      49.01111260      50.57053964
C       49.46807485      50.33035120      49.94381197
C       50.58930245      50.91786172      49.05463192
O       50.43941257      51.79948830      48.23324697
O       49.98695254      49.00997665      51.76675303
H       50.10069980      48.20051170      50.01644115
H       48.41907407      50.37037920      49.53380226
H       49.49628929      50.79274113      50.90581819
H       51.58092593      50.38394281      49.17720111
