9
Lattice="100.0 0.0 0.0 0.0 100.0 0.0 0.0 0.0 100.0" Properties=species:S:1:pos:R:3 Energy=-167302.37122344115 pbc="F F F"
C       50.29954654      49.53148933      51.33916929
C       49.60166497      50.13767922      50.24925081
C       50.30451709      50.67674187      48.90786254
O       50.99344888      51.63022503      48.77250452
O       50.18621186      48.36977497      51.78777355
H       50.83779347      50.40043919      51.89705677
H       49.05005823      49.29059228      49.80532071
H       49.00655112      50.95803562      50.70431660
H       49.96684179      50.02878166      48.10294323
