9
Lattice="100.0 0.0 0.0 0.0 100.0 0.0 0.0 0.0 100.0" Properties=species:S:1:pos:R:3 Energy=-167300.00751202242 pbc="F F F"
C       49.53826677      49.14554760      50.62748190
C       49.36999012      50.34112246      49.79043934
C       50.61110315      50.86205945      49.16809988
O       50.55543416      51.80939295      48.45366653
O       50.35988695      49.28900188      51.54633347
H       49.03287716      48.19060705      50.43827301
H       48.44326931      50.27608121      48.97719033
H       49.36055325      51.27674771      50.54349802
H       51.55673069      50.26727596      49.35421814
