9
Lattice="100.0 0.0 0.0 0.0 100.0 0.0 0.0 0.0 100.0" Properties=species:S:1:pos:R:3 Energy=-167308.58724531526 pbc="F F F"
C       50.16026782      49.04871560      50.92405351
C       49.47480735      50.10950683      49.94731143
C       50.45513621      50.64662727      48.94480761
O       50.38316495      51.60335003      48.22262186
O       49.68260644      48.39664997      51.77737814
H       51.23133410      49.05720369      50.83341270
H       48.66919115      49.55128631      49.44679260
H       48.92946149      50.84967615      50.54982471
H       51.33080885      50.00001863      48.90201686
