9
Lattice="100.0 0.0 0.0 0.0 100.0 0.0 0.0 0.0 100.0" Properties=species:S:1:pos:R:3 Energy=-167301.90714487134 pbc="F F F"
C       50.45785511      49.12943833      50.61908820
C       49.49484110      50.16674917      50.17124316
C       49.99914981      50.97011415      49.03377709
O       51.08992614      50.90134059      48.48027265
O       50.16130093      48.39189812      51.51972735
H       51.32362075      48.82667845      50.02797369
H       48.67637925      49.60522371      49.71841483
H       48.70895372      50.55923409      50.80941185
H       49.17390382      51.60810188      48.49575007
