9
Lattice="100.0 0.0 0.0 0.0 100.0 0.0 0.0 0.0 100.0" Properties=species:S:1:pos:R:3 Energy=-167300.8251555569 pbc="F F F"
C       50.21884299      49.18273974      51.15630759
C       49.83047978      49.77625766      49.67530188
C       50.45801024      51.05573284      49.17383271
O       51.13255759      51.06394021      48.16682305
O       50.50023796      48.06106146      51.47501457
H       50.12070205      50.11824455      51.83317695
H       49.92781502      49.03156060      48.76225064
H       48.86744241      50.22913399      49.98165096
H       50.00046974      51.93893854      49.61229628
