9
Lattice="100.0 0.0 0.0 0.0 100.0 0.0 0.0 0.0 100.0" Properties=species:S:1:pos:R:3 Energy=-167306.00222581244 pbc="F F F"
C       50.05917401      49.30107328      50.56704902
C       49.42644397      50.46001689      49.94602563
C       50.63518538      51.32996640      49.51646108
O       51.09054711      51.49942243      48.37708674
O       50.68374143      49.21847753      51.62291326
H       49.82115106      48.27801842      50.06310913
H       48.80245130      50.17129736      49.05569670
H       48.66512636      51.06578875      50.65981447
H       51.33487364      51.72198158      50.35114061
