9
Properties=species:S:1:pos:R:3 Energy=-97077.27811604219 pbc="F F F"
C       50.11677584      49.42682258      50.01986294
C       49.53058930      50.72921378      50.07448463
O       51.46038085      49.49926431      49.67185495
H       50.17322009      49.11429794      51.18417882
H       49.52899899      48.74986665      49.40878568
H       50.26995646      51.25013335      50.65091054
H       49.38365947      51.17233548      49.16757570
H       48.53008593      50.74505067      50.27106035
H       51.46991407      50.18759419      48.81582118
9
Lattice="100.0 0.0 0.0 0.0 100.0 0.0 0.0 0.0 100.0" Properties=species:S:1:pos:R:3 Energy=-97077.27811604219 pbc="F F F"
C       50.13503150      49.34872739      49.99740852
C       49.46592266      50.78225098      50.06160364
O       51.52586516      49.47664547      49.66629589
H       50.19340385      49.06365733      51.25120393
H       49.50552277      48.66828618      49.39355079
H       50.28307513      51.30719635      50.67934829
H       49.36681539      51.24447069      49.13683939
H       48.46456158      50.78974073      50.29515892
H       51.52259638      50.19360064      48.78128477
9
Lattice="100.0 0.0 0.0 0.0 100.0 0.0 0.0 0.0 100.0" Properties=species:S:1:pos:R:3 Energy=-97077.27811604219 pbc="F F F"
C       50.13516172      49.36981708      49.99933948
C       49.48615357      50.76040314      50.06445903
O       51.50964455      49.48136247      49.66678204
H       50.19063628      49.07146919      51.21730553
H       49.51775246      48.68161142      49.41169401
H       50.25394971      51.29029354      50.65884011
H       49.37086044      51.24127023      49.15326668
H       48.48100948      50.79475335      50.29685953
H       51.51750492      50.18376897      48.79483734
9
Lattice="100.0 0.0 0.0 0.0 100.0 0.0 0.0 0.0 100.0" Properties=species:S:1:pos:R:3 Energy=-97077.27811604219 pbc="F F F"
C       50.13762099      49.37221459      49.99520756
C       49.48781937      50.74894548      50.06102037
O       51.51147164      49.47894328      49.66627987
H       50.19386936      49.06662557      51.21077511
H       49.51872176      48.67468427      49.41969966
H       50.24337913      51.29345820      50.65721172
H       49.37020936      51.25209763      49.15551109
H       48.47838181      50.80522668      50.30125408
H       51.52394316      50.18056043      48.79516344
9
Lattice="100.0 0.0 0.0 0.0 100.0 0.0 0.0 0.0 100.0" Properties=species:S:1:pos:R:3 Energy=-97077.27811604219 pbc="F F F"
C       50.13808419      49.37442696      49.99289486
C       49.48857198      50.73943345      50.05858876
O       51.51351762      49.47796031      49.66609638
H       50.19453490      49.06273897      51.20399003
H       49.52102231      48.67074823      49.42732257
H       50.23423072      51.29626097      50.65624583
H       49.36943145      51.26013365      49.15714524
H       48.47690618      50.81435447      50.30456053
H       51.52841802      50.17610151      48.79534106
9
Lattice="100.0 0.0 0.0 0.0 100.0 0.0 0.0 0.0 100.0" Properties=species:S:1:pos:R:3 Energy=-97077.27811604219 pbc="F F F"
C       50.13913488      49.37651180      49.99082425
C       49.48791561      50.73270868      50.05786520
O       51.51590296      49.47614736      49.66464526
H       50.19611693      49.05928533      51.19722028
H       49.52183774      48.66775433      49.43342543
H       50.22668668      51.29885690      50.65477740
H       49.36819420      51.26766275      49.15887206
H       48.47671879      50.82138736      50.30845237
H       51.53244428      50.17246961      48.79616243
9
Lattice="100.0 0.0 0.0 0.0 100.0 0.0 0.0 0.0 100.0" Properties=species:S:1:pos:R:3 Energy=-97077.27811604219 pbc="F F F"
C       50.14033652      49.37846272      49.98951162
C       49.48864480      50.72766430      50.05699991
O       51.51790697      49.47594121      49.66283439
H       50.19581933      49.05691409      51.19122283
H       49.52266550      48.66536671      49.43975444
H       50.21885809      51.30074912      50.65361361
H       49.36732143      51.27232897      49.15995228
H       48.47649044      50.82550734      50.31150542
H       51.53481755      50.16941465      48.79681726
9
Lattice="100.0 0.0 0.0 0.0 100.0 0.0 0.0 0.0 100.0" Properties=species:S:1:pos:R:3 Energy=-97077.27811604219 pbc="F F F"
C       50.14138453      49.37774568      49.98702284
C       49.48911169      50.72455836      50.05670039
O       51.52112909      49.47443758      49.66146769
H       50.19550569      49.05341946      51.18614945
H       49.52437761      48.66308071      49.44589190
H       50.21314171      51.30470345      50.65387919
H       49.36727983      51.27628375      49.16006044
H       48.47467948      50.82932015      50.31469039
H       51.53670146      50.16570416      48.79723471
9
Lattice="100.0 0.0 0.0 0.0 100.0 0.0 0.0 0.0 100.0" Properties=species:S:1:pos:R:3 Energy=-97077.27811604219 pbc="F F F"
C       50.14121988      49.37850985      49.98679725
C       49.49008559      50.72281265      50.05611160
O       51.52331326      49.47309118      49.65949979
H       50.19629275      49.05070627      51.18066204
H       49.52531711      48.66166023      49.45132562
H       50.20741723      51.30794208      50.65403563
H       49.36719584      51.28014558      49.16062888
H       48.47330153      50.83133752      50.31620331
H       51.53778927      50.16167973      48.79908896
9
Lattice="100.0 0.0 0.0 0.0 100.0 0.0 0.0 0.0 100.0" Properties=species:S:1:pos:R:3 Energy=-97077.27811604219 pbc="F F F"
C       50.14138114      49.37851336      49.98571756
C       49.49016044      50.72181826      50.05710610
O       51.52610481      49.47268893      49.65818416
H       50.19602279      49.04962890      51.17528310
H       49.52664042      48.66104760      49.45628964
H       50.20273352      51.31104206      50.65321251
H       49.36752743      51.28371461      49.16104396
H       48.47272491      50.83389934      50.31761117
H       51.53940654      50.15788222      48.79952936
9
Lattice="100.0 0.0 0.0 0.0 100.0 0.0 0.0 0.0 100.0" Properties=species:S:1:pos:R:3 Energy=-97077.27811604219 pbc="F F F"
C       50.14058424      49.37943801      49.98442416
C       49.49051593      50.71980870      50.05828928
O       51.52883778      49.47199194      49.65613654
H       50.19591648      49.04696524      51.17105596
H       49.52749644      48.66130384      49.46061557
H       50.19867118      51.31343763      50.65373283
H       49.36810719      51.28569811      49.16023497
H       48.47100569      50.83533276      50.32024735
H       51.54128680      50.15532200      48.79990421
9
Lattice="100.0 0.0 0.0 0.0 100.0 0.0 0.0 0.0 100.0" Properties=species:S:1:pos:R:3 Energy=-97077.27811604219 pbc="F F F"
C       50.14002924      49.38044641      49.98374050
C       49.49129812      50.71796354      50.05923811
O       51.53176134      49.47096339      49.65431196
H       50.19479554      49.04502449      51.16723826
H       49.52881417      48.66016981      49.46415764
H       50.19498470      51.31569384      50.65428286
H       49.36760321      51.28813825      49.15963977
H       48.46984505      50.83669899      50.32149232
H       51.54291066      50.15317798      48.80119692
9
Lattice="100.0 0.0 0.0 0.0 100.0 0.0 0.0 0.0 100.0" Properties=species:S:1:pos:R:3 Energy=-97077.27811604219 pbc="F F F"
C       50.13973162      49.38121331      49.98352862
C       49.49207308      50.71825796      50.06075303
O       51.53418801      49.47049355      49.65243506
H       50.19368864      49.04300794      51.16368193
H       49.52998340      48.66011011      49.46710184
H       50.19190256      51.31775975      50.65453059
H       49.36870173      51.29025388      49.15775954
H       48.46915858      50.83758966      50.32253764
H       51.54442539      50.15004617      48.80303893
9
Lattice="100.0 0.0 0.0 0.0 100.0 0.0 0.0 0.0 100.0" Properties=species:S:1:pos:R:3 Energy=-97077.27811604219 pbc="F F F"
C       50.13836005      49.38144992      49.98391409
C       49.49272092      50.71747127      50.06235066
O       51.53558552      49.47000879      49.64980980
H       50.19371615      49.04133740      51.16099270
H       49.52998069      48.66086513      49.46966011
H       50.18855023      51.31860273      50.65460705
H       49.37004316      51.29152187      49.15587514
H       48.46792533      50.83727368      50.32365852
H       51.54431743      50.14802158      48.80491003
9
Lattice="100.0 0.0 0.0 0.0 100.0 0.0 0.0 0.0 100.0" Properties=species:S:1:pos:R:3 Energy=-97077.27811604219 pbc="F F F"
C       50.13679966      49.38242288      49.98295992
C       49.49293962      50.71778219      50.06332832
O       51.53678639      49.46985253      49.64794169
H       50.19388476      49.03998597      51.15806205
H       49.53058846      48.66140672      49.47307761
H       50.18563621      51.32118554      50.65541439
H       49.37023754      51.29378959      49.15537919
H       48.46656530      50.83636345      50.32496060
H       51.54505707      50.14612243      48.80530910
9
Lattice="100.0 0.0 0.0 0.0 100.0 0.0 0.0 0.0 100.0" Properties=species:S:1:pos:R:3 Energy=-97077.27811604219 pbc="F F F"
C       50.13584845      49.38305798      49.98342089
C       49.49393615      50.71726137      50.06433435
O       51.53864127      49.46935605      49.64591301
H       50.19389908      49.03867120      51.15527223
H       49.53039065      48.66180083      49.47556885
H       50.18345588      51.32197492      50.65547790
H       49.37081220      51.29445276      49.15425300
H       48.46632038      50.83615691      50.32654562
H       51.54508977      50.14455488      48.80641759
9
Lattice="100.0 0.0 0.0 0.0 100.0 0.0 0.0 0.0 100.0" Properties=species:S:1:pos:R:3 Energy=-97077.27811604219 pbc="F F F"
C       50.13581561      49.38371333      49.98379156
C       49.49472160      50.71637694      50.06458569
O       51.54025899      49.46890424      49.64414064
H       50.19417646      49.03809232      51.15211235
H       49.53072483      48.66126010      49.47818578
H       50.18186604      51.32334360      50.65670796
H       49.37046119      51.29590754      49.15309968
H       48.46589801      50.83555006      50.32811819
H       51.54557453      50.14190313      48.80787740
9
Lattice="100.0 0.0 0.0 0.0 100.0 0.0 0.0 0.0 100.0" Properties=species:S:1:pos:R:3 Energy=-97077.27811604219 pbc="F F F"
C       50.13424732      49.38508550      49.98392147
C       49.49490092      50.71615732      50.06543180
O       51.54232511      49.46981456      49.64222778
H       50.19386062      49.03667102      51.14973972
H       49.53038037      48.66077752      49.48096360
H       50.18071332      51.32414931      50.65720745
H       49.37102904      51.29799537      49.15144836
H       48.46498471      50.83459242      50.32892010
H       51.54684466      50.14022328      48.80976414
9
Lattice="100.0 0.0 0.0 0.0 100.0 0.0 0.0 0.0 100.0" Properties=species:S:1:pos:R:3 Energy=-97077.27811604219 pbc="F F F"
C       50.13276191      49.38508231      49.98365428
C       49.49478391      50.71562719      50.06568557
O       51.54428808      49.47002639      49.63992401
H       50.19441787      49.03548491      51.14806743
H       49.53028541      48.66031843      49.48233479
H       50.17918708      51.32506838      50.65851783
H       49.37092135      51.29918041      49.14954724
H       48.46336188      50.83341091      50.32916292
H       51.54818953      50.13742627      48.81139967
9
Lattice="100.0 0.0 0.0 0.0 100.0 0.0 0.0 0.0 100.0" Properties=species:S:1:pos:R:3 Energy=-97077.27811604219 pbc="F F F"
C       50.13195823      49.38578058      49.98296727
C       49.49566566      50.71573300      50.06640162
O       51.54611341      49.46967236      49.63847689
H       50.19434790      49.03558258      51.14582144
H       49.53139686      48.66021343      49.48350449
H       50.17690981      51.32663384      50.65899435
H       49.37186777      51.29935961      49.14905599
H       48.46267365      50.83236498      50.32934502
H       51.54830903      50.13477814      48.81327286
9
Lattice="100.0 0.0 0.0 0.0 100.0 0.0 0.0 0.0 100.0" Properties=species:S:1:pos:R:3 Energy=-97077.27811604219 pbc="F F F"
C       50.13159682      49.38702349      49.98337294
C       49.49557285      50.71633183      50.06745965
O       51.54756973      49.46955840      49.63746711
H       50.19449178      49.03463834      51.14458020
H       49.53125096      48.66105364      49.48577450
H       50.17499744      51.32686795      50.65871744
H       49.37232206      51.29944225      49.14861349
H       48.46195668      50.83163360      50.32988906
H       51.54854076      50.13240411      48.81370810
9
Lattice="100.0 0.0 0.0 0.0 100.0 0.0 0.0 0.0 100.0" Properties=species:S:1:pos:R:3 Energy=-97077.27811604219 pbc="F F F"
C       50.13046550      49.38785963      49.98361218
C       49.49599137      50.71664586      50.06833369
O       51.54881004      49.47025535      49.63628730
H       50.19494376      49.03469669      51.14336524
H       49.53080990      48.66019231      49.48682366
H       50.17331939      51.32875311      50.65985287
H       49.37219812      51.30052405      49.14796171
H       48.46052944      50.83089140      50.33145929
H       51.54849077      50.13006253      48.81484804
9
Lattice="100.0 0.0 0.0 0.0 100.0 0.0 0.0 0.0 100.0" Properties=species:S:1:pos:R:3 Energy=-97077.27811604219 pbc="F F F"
C       50.13041953      49.38832862      49.98388300
C       49.49691511      50.71660701      50.06961209
O       51.55050511      49.47053303      49.63427998
H       50.19471089      49.03475900      51.14092948
H       49.53182540      48.65962805      49.48801215
H       50.17238020      51.32887686      50.65962792
H       49.37185366      51.30104322      49.14636120
H       48.45992901      50.83075315      50.33213692
H       51.54868935      50.12881106      48.81656579
9
Lattice="100.0 0.0 0.0 0.0 100.0 0.0 0.0 0.0 100.0" Properties=species:S:1:pos:R:3 Energy=-97077.27811604219 pbc="F F F"
C       50.12935260      49.38921378      49.98355863
C       49.49789660      50.71570878      50.06985969
O       51.55127600      49.47070265      49.63218994
H       50.19511345      49.03426450      51.13900976
H       49.53282825      48.66034125      49.48922832
H       50.17035922      51.32979393      50.66035341
H       49.37225473      51.30258721      49.14541275
H       48.45891481      50.82990451      50.33246749
H       51.54891560      50.12752086      48.81836392
9
Lattice="100.0 0.0 0.0 0.0 100.0 0.0 0.0 0.0 100.0" Properties=species:S:1:pos:R:3 Energy=-97077.27811604219 pbc="F F F"
C       50.12863716      49.38955165      49.98261886
C       49.49762885      50.71523284      50.07108359
O       51.55267595      49.47112115      49.63126749
H       50.19544374      49.03376462      51.13790820
H       49.53251402      48.66083354      49.49129414
H       50.16970937      51.33027857      50.66126632
H       49.37297314      51.30311517      49.14467353
H       48.45798547      50.82905037      50.33270881
H       51.54938326      50.12567097      48.81900515
9
Lattice="100.0 0.0 0.0 0.0 100.0 0.0 0.0 0.0 100.0" Properties=species:S:1:pos:R:3 Energy=-97077.27811604219 pbc="F F F"
C       50.12785953      49.38965515      49.98187161
C       49.49781970      50.71596847      50.07187695
O       51.55397206      49.47099711      49.63007427
H       50.19568250      49.03389296      51.13668915
H       49.53255147      48.66086734      49.49303770
H       50.16939779      51.33035431      50.66200704
H       49.37257411      51.30388860      49.14420403
H       48.45643122      50.82874640      50.33269882
H       51.54921966      50.12354740      48.82048477
9
Lattice="100.0 0.0 0.0 0.0 100.0 0.0 0.0 0.0 100.0" Properties=species:S:1:pos:R:3 Energy=-97077.27811604219 pbc="F F F"
C       50.12755126      49.39028154      49.98219533
C       49.49893536      50.71584657      50.07229261
O       51.55510025      49.47057685      49.62782501
H       50.19523624      49.03357666      51.13483190
H       49.53200448      48.66163028      49.49460284
H       50.16855926      51.33033294      50.66195460
H       49.37296594      51.30463523      49.14343445
H       48.45627426      50.82889486      50.33284210
H       51.54955533      50.12146852      48.82220606
9
Lattice="100.0 0.0 0.0 0.0 100.0 0.0 0.0 0.0 100.0" Properties=species:S:1:pos:R:3 Energy=-97077.27811604219 pbc="F F F"
C       50.12704265      49.39133721      49.98213568
C       49.49975621      50.71552548      50.07345423
O       51.55596190      49.47139115      49.62664003
H       50.19446156      49.03320580      51.13342372
H       49.53158546      48.66203763      49.49582730
H       50.16744234      51.33136043      50.66192759
H       49.37270754      51.30526528      49.14206255
H       48.45586164      50.82846614      50.33390521
H       51.54996470      50.11977040      48.82278266
9
Lattice="100.0 0.0 0.0 0.0 100.0 0.0 0.0 0.0 100.0" Properties=species:S:1:pos:R:3 Energy=-97077.27811604219 pbc="F F F"
C       50.12620085      49.39093794      49.98135132
C       49.50001654      50.71615885      50.07429291
O       51.55634730      49.47152026      49.62572187
H       50.19374212      49.03288445      51.13190278
H       49.53185234      48.66115491      49.49661291
H       50.16635935      51.33244616      50.66302884
H       49.37299269      51.30705224      49.14091949
H       48.45445954      50.82877467      50.33485152
H       51.55011401      50.11822285      48.82306790
9
Lattice="100.0 0.0 0.0 0.0 100.0 0.0 0.0 0.0 100.0" Properties=species:S:1:pos:R:3 Energy=-97077.27811604219 pbc="F F F"
C       50.12653790      49.39175332      49.98124695
C       49.50116434      50.71600204      50.07454963
O       51.55702410      49.47172767      49.62384357
H       50.19361662      49.03298359      51.12985954
H       49.53208494      48.66086489      49.49755082
H       50.16530730      51.33291672      50.66274596
H       49.37390392      51.30701022      49.13969700
H       48.45380801      50.82808072      50.33546631
H       51.55046357      50.11623744      48.82452366
9
Lattice="100.0 0.0 0.0 0.0 100.0 0.0 0.0 0.0 100.0" Properties=species:S:1:pos:R:3 Energy=-97077.27811604219 pbc="F F F"
C       50.12615767      49.39204840      49.98064236
C       49.50190595      50.71668619      50.07546681
O       51.55701935      49.47201042      49.62229702
H       50.19411227      49.03285072      51.12882149
H       49.53206322      48.66107142      49.49842752
H       50.16426079      51.33343827      50.66361407
H       49.37486163      51.30705191      49.13796485
H       48.45289237      50.82773672      50.33632690
H       51.55049804      50.11430772      48.82532366
9
Lattice="100.0 0.0 0.0 0.0 100.0 0.0 0.0 0.0 100.0" Properties=species:S:1:pos:R:3 Energy=-97077.27811604219 pbc="F F F"
C       50.12669330      49.39247037      49.97991072
C       49.50277795      50.71646976      50.07562092
O       51.55742186      49.47180737      49.62071587
H       50.19401557      49.03264173      51.12815244
H       49.53291165      48.66112255      49.49869308
H       50.16381003      51.33367003      50.66428489
H       49.37495577      51.30712110      49.13778483
H       48.45150072      50.82755561      50.33735191
H       51.55027917      50.11288267      48.82587378
9
Lattice="100.0 0.0 0.0 0.0 100.0 0.0 0.0 0.0 100.0" Properties=species:S:1:pos:R:3 Energy=-97077.27811604219 pbc="F F F"
C       50.12702179      49.39333098      49.98006523
C       49.50296165      50.71579334      50.07590753
O       51.55818804      49.47223112      49.61975757
H       50.19360718      49.03241064      51.12673802
H       49.53381919      48.66129375      49.49959907
H       50.16303765      51.33319535      50.66517224
H       49.37536312      51.30832484      49.13633560
H       48.45140027      50.82775303      50.33729276
H       51.55004974      50.11226645      48.82696438
9
Lattice="100.0 0.0 0.0 0.0 100.0 0.0 0.0 0.0 100.0" Properties=species:S:1:pos:R:3 Energy=-97077.27811604219 pbc="F F F"
C       50.12722859      49.39385089      49.97940636
C       49.50333386      50.71638764      50.07605067
O       51.55827988      49.47237780      49.61839414
H       50.19419603      49.03200430      51.12565295
H       49.53359758      48.66114122      49.50032967
H       50.16291321      51.33383573      50.66588529
H       49.37581003      51.30854675      49.13556858
H       48.45074166      50.82728484      50.33743398
H       51.55123574      50.11109178      48.82762468
9
Lattice="100.0 0.0 0.0 0.0 100.0 0.0 0.0 0.0 100.0" Properties=species:S:1:pos:R:3 Energy=-97077.27811604219 pbc="F F F"
C       50.12738198      49.39425451      49.97916275
C       49.50427013      50.71680286      50.07680467
O       51.55910123      49.47265043      49.61668079
H       50.19360783      49.03185109      51.12419616
H       49.53428711      48.66182576      49.50160755
H       50.16177313      51.33377909      50.66568729
H       49.37541131      51.30938090      49.13491960
H       48.44949092      50.82625176      50.33834213
H       51.55178393      50.11024991      48.82774387
9
Lattice="100.0 0.0 0.0 0.0 100.0 0.0 0.0 0.0 100.0" Properties=species:S:1:pos:R:3 Energy=-97077.27811604219 pbc="F F F"
C       50.12678410      49.39431314      49.97895615
C       49.50507808      50.71690495      50.07677836
O       51.55996968      49.47296113      49.61612448
H       50.19399694      49.03152555      51.12403867
H       49.53498518      48.66124270      49.50229205
H       50.16140030      51.33330229      50.66579317
H       49.37531403      51.31041133      49.13413370
H       48.44870529      50.82631752      50.33810740
H       51.55252590      50.10946872      48.82774787
9
Lattice="100.0 0.0 0.0 0.0 100.0 0.0 0.0 0.0 100.0" Properties=species:S:1:pos:R:3 Energy=-97077.27811604219 pbc="F F F"
C       50.12694124      49.39525416      49.97854001
C       49.50610151      50.71725096      50.07731965
O       51.55994968      49.47258118      49.61515294
H       50.19382267      49.03233655      51.12249038
H       49.53589465      48.66145942      49.50281575
H       50.16075867      51.33303384      50.66551660
H       49.37544483      51.31118069      49.13374679
H       48.44843056      50.82507833      50.33810252
H       51.55304677      50.10880667      48.82858659
9
Lattice="100.0 0.0 0.0 0.0 100.0 0.0 0.0 0.0 100.0" Properties=species:S:1:pos:R:3 Energy=-97077.27811604219 pbc="F F F"
C       50.12726631      49.39543297      49.97807314
C       49.50702040      50.71761605      50.07842685
O       51.56000687      49.47339318      49.61385792
H       50.19422005      49.03225370      51.12167784
H       49.53667536      48.66089184      49.50386253
H       50.16091714      51.33273031      50.66655182
H       49.37579190      51.31164904      49.13281000
H       48.44837735      50.82512343      50.33839428
H       51.55363675      50.10742670      48.82912769
9
Lattice="100.0 0.0 0.0 0.0 100.0 0.0 0.0 0.0 100.0" Properties=species:S:1:pos:R:3 Energy=-97077.27811604219 pbc="F F F"
C       50.12783689      49.39649921      49.97774494
C       49.50693999      50.71816380      50.07893283
O       51.56059094      49.47354378      49.61283322
H       50.19395655      49.03253615      51.12048083
H       49.53701529      48.66148396      49.50448115
H       50.16076007      51.33234390      50.66656181
H       49.37565525      51.31280989      49.13167262
H       48.44803888      50.82541166      50.33830073
H       51.55443503      50.10714286      48.83018850
9
Lattice="100.0 0.0 0.0 0.0 100.0 0.0 0.0 0.0 100.0" Properties=species:S:1:pos:R:3 Energy=-97077.27811604219 pbc="F F F"
C       50.12721247      49.39729956      49.97806199
C       49.50682721      50.71769828      50.07896712
O       51.56020136      49.47362705      49.61222056
H       50.19430935      49.03282419      51.12035633
H       49.53658123      48.66168432      49.50519350
H       50.16055313      51.33196446      50.66683528
H       49.37625095      51.31356814      49.13129507
H       48.44772817      50.82478272      50.33797260
H       51.55508846      50.10580827      48.83103360
9
Lattice="100.0 0.0 0.0 0.0 100.0 0.0 0.0 0.0 100.0" Properties=species:S:1:pos:R:3 Energy=-97077.27811604219 pbc="F F F"
C       50.12701406      49.39784443      49.97834918
C       49.50668580      50.71813161      50.07953189
O       51.56113415      49.47389084      49.61154777
H       50.19369422      49.03255350      51.12059694
H       49.53710948      48.66151173      49.50592850
H       50.16073877      51.33245568      50.66678798
H       49.37672009      51.31439912      49.13003833
H       48.44745181      50.82398767      50.33872508
H       51.55549829      50.10498527      48.83191893
9
Lattice="100.0 0.0 0.0 0.0 100.0 0.0 0.0 0.0 100.0" Properties=species:S:1:pos:R:3 Energy=-97077.27811604219 pbc="F F F"
C       50.12691528      49.39885212      49.97782161
C       49.50708884      50.71740432      50.08053178
O       51.56126192      49.47423578      49.61097900
H       50.19374782      49.03220806      51.12009376
H       49.53712917      48.66158596      49.50611874
H       50.16036096      51.33197019      50.66723990
H       49.37749101      51.31481733      49.12960975
H       48.44691131      50.82341744      50.33923761
H       51.55625508      50.10408569      48.83261922
9
Lattice="100.0 0.0 0.0 0.0 100.0 0.0 0.0 0.0 100.0" Properties=species:S:1:pos:R:3 Energy=-97077.27811604219 pbc="F F F"
C       50.12659815      49.39933718      49.97758175
C       49.50753565      50.71712902      50.08110078
O       51.56216413      49.47366556      49.61005743
H       50.19355398      49.03283674      51.11890778
H       49.53712507      48.66146916      49.50676826
H       50.15923141      51.33162572      50.66709819
H       49.37692601      51.31566202      49.12968622
H       48.44699506      50.82263058      50.33939596
H       51.55673661      50.10370062      48.83314581
9
Lattice="100.0 0.0 0.0 0.0 100.0 0.0 0.0 0.0 100.0" Properties=species:S:1:pos:R:3 Energy=-97077.27811604219 pbc="F F F"
C       50.12715780      49.39925158      49.97740976
C       49.50709623      50.71731229      50.08168715
O       51.56307601      49.47360949      49.60862488
H       50.19320214      49.03254431      51.11877301
H       49.53667621      48.66113204      49.50726204
H       50.15848551      51.33106602      50.66745565
H       49.37673717      51.31690659      49.12841815
H       48.44559477      50.82217097      50.34019526
H       51.55670537      50.10264204      48.83320897
9
Lattice="100.0 0.0 0.0 0.0 100.0 0.0 0.0 0.0 100.0" Properties=species:S:1:pos:R:3 Energy=-97077.27811604219 pbc="F F F"
C       50.12792394      49.39979126      49.97741097
C       49.50673442      50.71705214      50.08207585
O       51.56280269      49.47408110      49.60768347
H       50.19335632      49.03252090      51.11733715
H       49.53675607      48.66083120      49.50798813
H       50.15852057      51.33057801      50.66811727
H       49.37692072      51.31708098      49.12852057
H       48.44567115      50.82165531      50.34030975
H       51.55747050      50.10150754      48.83401254
9
Lattice="100.0 0.0 0.0 0.0 100.0 0.0 0.0 0.0 100.0" Properties=species:S:1:pos:R:3 Energy=-97077.27811604219 pbc="F F F"
C       50.12787762      49.40017256      49.97746473
C       49.50661229      50.71673179      50.08224616
O       51.56329246      49.47423401      49.60649440
H       50.19361416      49.03335276      51.11657821
H       49.53691085      48.66122706      49.50870803
H       50.15802232      51.33095752      50.66843513
H       49.37649470      51.31717779      49.12761755
H       48.44505654      50.82202605      50.34057446
H       51.55766075      50.10075662      48.83429157
9
Lattice="100.0 0.0 0.0 0.0 100.0 0.0 0.0 0.0 100.0" Properties=species:S:1:pos:R:3 Energy=-97077.27811604219 pbc="F F F"
C       50.12752428      49.40106200      49.97686245
C       49.50685744      50.71711650      50.08283080
O       51.56319099      49.47468446      49.60556708
H       50.19377507      49.03347098      51.11582188
H       49.53736380      48.66089673      49.50887478
H       50.15800651      51.33033747      50.66836472
H       49.37684371      51.31787472      49.12735010
H       48.44450210      50.82237186      50.34093114
H       51.55864488      50.09956096      48.83413265
9
Lattice="100.0 0.0 0.0 0.0 100.0 0.0 0.0 0.0 100.0" Properties=species:S:1:pos:R:3 Energy=-97077.27811604219 pbc="F F F"
C       50.12747536      49.40140118      49.97693129
C       49.50715859      50.71672813      50.08395898
O       51.56289996      49.47417814      49.60500125
H       50.19334606      49.03434927      51.11492030
H       49.53743609      48.66032423      49.50925138
H       50.15719554      51.32956312      50.66801146
H       49.37701723      51.31857024      49.12689978
H       48.44436839      50.82213873      50.34149925
H       51.55908570      50.09917188      48.83415832
9
Lattice="100.0 0.0 0.0 0.0 100.0 0.0 0.0 0.0 100.0" Properties=species:S:1:pos:R:3 Energy=-97077.27811604219 pbc="F F F"
C       50.12812343      49.40171852      49.97614627
C       49.50785042      50.71694049      50.08415626
O       51.56353252      49.47387592      49.60402392
H       50.19329004      49.03432425      51.11420579
H       49.53806734      48.66039276      49.50946552
H       50.15641196      51.32954344      50.66792518
H       49.37687879      51.31952664      49.12610092
H       48.44430478      50.82197246      50.34170314
H       51.56007792      50.09832024      48.83404940
9
Lattice="100.0 0.0 0.0 0.0 100.0 0.0 0.0 0.0 100.0" Properties=species:S:1:pos:R:3 Energy=-97077.27811604219 pbc="F F F"
C       50.12884951      49.40226105      49.97574967