9
Lattice="100.0 0.0 0.0 0.0 100.0 0.0 0.0 0.0 100.0" Properties=species:S:1:pos:R:3 Energy=-97075.5704388177 Energy_pyscf=-97075.42973577829 pbc="F F F"
C       50.12528796      49.31543491      50.08209354
C       49.49199466      50.69317550      50.20205723
O       51.48880341      49.29186957      49.66913414
H       50.09654734      48.97891843      51.26631710
H       49.57213282      48.53226093      49.52614554
H       48.43933589      50.60407487      50.56513609
H       50.09006063      51.35097631      50.74081653
H       49.55868748      51.16295672      49.23824516
H       51.64860625      49.23713756      48.66031527
