9
Lattice="100.0 0.0 0.0 0.0 100.0 0.0 0.0 0.0 100.0" Properties=species:S:1:pos:R:3 Energy=-97081.83219040331 Energy_pyscf=-97081.67389752396 pbc="F F F"
C       49.77802946      49.37889119      49.95517598
C       49.23750669      50.72224074      50.03417919
O       51.13113241      49.30340853      49.50475475
H       49.77209996      48.88820715      50.91590472
H       49.23034967      48.71423758      49.27068889
H       48.23023448      50.80837537      50.31906289
H       49.74063830      51.36367919      50.82009764
H       49.27710043      51.22068893      49.06378056
H       51.76149583      49.12150966      50.21872094
