9
Lattice="100.0 0.0 0.0 0.0 100.0 0.0 0.0 0.0 100.0" Properties=species:S:1:pos:R:3 Energy=-97068.58128447086 Energy_pyscf=-97062.17302474983 pbc="F F F"
C       50.12218616      49.34247983      50.06589627
C       49.43754679      50.79263413      50.16103342
O       51.52206167      49.43468826      49.84973879
H       49.97817459      48.64577848      50.89636253
H       49.57864908      48.61990898      49.40958097
H       48.67455060      50.72511664      50.96613582
H       50.03381171      51.58192486      50.39165018
H       48.74445210      50.57416212      49.30891493
H       51.69302544      49.68930961      48.92111385
