9
Lattice="100.0 0.0 0.0 0.0 100.0 0.0 0.0 0.0 100.0" Properties=species:S:1:pos:R:3 Energy=-97076.3634677904 Energy_pyscf=-97076.21565139818 pbc="F F F"
C       49.70739551      49.32158291      49.99876405
C       49.14840784      50.65377398      49.96869530
O       51.08762389      49.33205305      49.53364346
H       49.81843537      48.97952477      51.15712152
H       49.12528139      48.66898333      49.37813385
H       48.17690078      50.68740465      50.39492777
H       49.83162302      51.44005462      50.26141101
H       49.01520459      50.87830418      48.86796397
H       51.45568965      48.48180840      49.53162841
