9
Lattice="100.0 0.0 0.0 0.0 100.0 0.0 0.0 0.0 100.0" Properties=species:S:1:pos:R:3 Energy=-97077.61728372567 Energy_pyscf=-97077.4749631196 pbc="F F F"
C       49.92109429      49.27546819      50.11138999
C       49.39591003      50.73002866      50.14197347
O       51.22284173      49.43949717      49.78582806
H       49.75318996      48.79792963      51.04839636
H       49.37637423      48.77393337      49.21838981
H       48.23077489      50.96112123      50.29609454
H       50.01675144      51.41292557      50.86437930
H       49.58091361      51.14007529      49.12950605
H       51.71010679      48.61987201      49.60246937
