9
Lattice="100.0 0.0 0.0 0.0 100.0 0.0 0.0 0.0 100.0" Properties=species:S:1:pos:R:3 Energy=-97078.89253285824 Energy_pyscf=-97078.73465582899 pbc="F F F"
C       50.10236562      49.30585663      49.88208638
C       49.34871000      50.76417691      49.88381172
O       51.51692372      49.48744153      49.80232250
H       49.88128485      48.67619931      50.74089872
H       49.67589059      48.75936886      49.02942472
H       49.86338127      51.34466651      50.74269135
H       49.79666971      51.23910812      48.96381053
H       48.25921163      50.85350499      49.90330695
H       51.81509559      50.42743748      49.74123150
