9
Lattice="100.0 0.0 0.0 0.0 100.0 0.0 0.0 0.0 100.0" Properties=species:S:1:pos:R:3 Energy=-97069.79050192668 Energy_pyscf=-97069.63796912546 pbc="F F F"
C       50.09139971      49.36643947      50.04715800
C       49.47667981      50.75305151      49.96146410
O       51.40823107      49.48774550      49.45259526
H       50.11133962      49.00512337      51.18002951
H       49.46723374      48.65149723      49.45324734
H       50.28395031      51.37002158      50.53778597
H       49.62042460      51.05399167      49.02258536
H       48.45735115      50.74146393      50.53257196
H       51.53379290      50.39076171      49.07874135
