9
Lattice="100.0 0.0 0.0 0.0 100.0 0.0 0.0 0.0 100.0" Properties=species:S:1:pos:R:3 Energy=-97076.39500696374 Energy_pyscf=-97076.24986433293 pbc="F F F"
C       50.07808090      49.29391856      49.86125133
C       49.45336724      50.68288851      50.22645421
O       51.53295624      49.27814485      49.71320008
H       49.80945501      48.58143652      50.59555927
H       49.64645852      48.98704756      48.91221923
H       49.82271693      51.04633511      51.18700783
H       49.56122551      51.35608887      49.35379043
H       48.51296150      50.26674999      50.51781447
H       51.61058442      48.34467310      49.37900008
