9
Lattice="100.0 0.0 0.0 0.0 100.0 0.0 0.0 0.0 100.0" Properties=species:S:1:pos:R:3 Energy=-97081.87286127087 Energy_pyscf=-97081.72435488264 pbc="F F F"
C       49.94468713      49.38380225      50.06569417
C       49.43587327      50.75944766      50.12352278
O       51.33216616      49.38834329      49.74209431
H       49.75685537      48.85122102      51.07018317
H       49.49211460      48.70482713      49.35937729
H       48.29887715      50.71671056      50.23841134
H       49.82745492      51.48695491      50.88571764
H       49.60033798      51.40811010      49.16906943
H       51.53211708      48.46297242      49.55211729
