9
Lattice="100.0 0.0 0.0 0.0 100.0 0.0 0.0 0.0 100.0" Properties=species:S:1:pos:R:3 Energy=-97080.1692318483 Energy_pyscf=-97079.98953524703 pbc="F F F"
C       50.15161715      49.30677767      50.07886058
C       49.45796114      50.76061322      50.15654446
O       51.50975536      49.44808978      49.64931046
H       50.26308176      48.86054727      51.03608616
H       49.56773775      48.61749839      49.42345423
H       48.54140515      50.52815573      50.68718917
H       50.04944711      51.49266249      50.78552574
H       49.35646467      51.30206613      49.18386980
H       51.64227047      48.83027946      48.95192352
