9
Lattice="100.0 0.0 0.0 0.0 100.0 0.0 0.0 0.0 100.0" Properties=species:S:1:pos:R:3 Energy=-97080.73784106362 Energy_pyscf=-97080.59153494204 pbc="F F F"
C       50.19335388      49.27269466      50.10185469
C       49.46495997      50.73999249      50.17491619
O       51.58019150      49.18042662      49.70484351
H       50.19370536      48.88275503      51.16741098
H       49.48643060      48.63478865      49.51969349
H       48.38450912      50.67593067      50.56057564
H       50.14091125      51.41226809      50.83452386
H       49.32861938      51.16563874      49.15865761
H       51.73733316      49.18134087      48.72853166
