9
Lattice="100.0 0.0 0.0 0.0 100.0 0.0 0.0 0.0 100.0" Properties=species:S:1:pos:R:3 Energy=-97076.6047272979 Energy_pyscf=-97077.64040476925 pbc="F F F"
C       49.71695962      49.25958440      50.05103137
C       49.13124151      50.67022490      49.87087322
O       51.08692584      49.32611519      49.63117846
H       49.64742610      48.91048924      51.07101471
H       49.13318598      48.48815785      49.42674619
H       48.30378093      50.69281021      50.47489459
H       49.80278381      51.48019956      50.19462934
H       48.93530492      51.12451380      48.84071300
H       51.58369519      48.48173942      49.53287596
