9
Lattice="100.0 0.0 0.0 0.0 100.0 0.0 0.0 0.0 100.0" Properties=species:S:1:pos:R:3 Energy=-97072.6070033843 Energy_pyscf=-97072.46090979858 pbc="F F F"
C       50.02364568      49.14940752      49.85354889
C       49.39845401      50.60343674      49.89105824
O       51.44490786      49.34169320      49.89256264
H       49.71222446      48.74978129      50.73056927
H       49.61010528      48.65197523      48.93570045
H       49.40131593      51.45655590      49.11633361
H       48.35256838      50.49739332      50.09151550
H       49.64767145      51.09539034      50.88697308
H       51.83294016      48.42956733      49.85373887
