9
Lattice="100.0 0.0 0.0 0.0 100.0 0.0 0.0 0.0 100.0" Properties=species:S:1:pos:R:3 Energy=-97075.34729703605 Energy_pyscf=-97075.14433285716 pbc="F F F"
C       50.07274314      49.22636731      50.00537805
C       49.30855233      50.63011239      50.10364035
O       51.48443611      49.15028768      49.62947249
H       50.13388443      48.75535194      51.01950518
H       49.44422476      48.50457300      49.52582989
H       49.86785075      51.40167216      49.56337843
H       48.24817307      50.65815036      49.68743494
H       49.18463658      50.84671961      51.23861957
H       51.76189837      49.77334149      48.90365174
