9
Lattice="100.0 0.0 0.0 0.0 100.0 0.0 0.0 0.0 100.0" Properties=species:S:1:pos:R:3 Energy=-97076.78403459598 Energy_pyscf=-97076.62604237089 pbc="F F F"
C       49.93293976      49.21780055      49.79304985
C       49.33191669      50.60295506      49.98729382
O       51.37939473      49.39384860      49.61333878
H       49.71682364      48.47712185      50.56506168
H       49.58721472      48.62777740      48.96148467
H       49.51568665      51.28128745      49.01256647
H       48.29069099      50.56948155      50.15334272
H       49.88405819      51.09040606      50.90726059
H       51.78136714      48.69488372      50.25467053
