9
Lattice="100.0 0.0 0.0 0.0 100.0 0.0 0.0 0.0 100.0" Properties=species:S:1:pos:R:3 Energy=-97074.81526350624 Energy_pyscf=-97073.55958681408 pbc="F F F"
C       50.16607051      49.23861041      50.05807576
C       49.51380086      50.75524253      50.16126426
O       51.53887325      49.18817326      49.76692639
H       50.15757791      48.92356324      51.06750714
H       49.53885969      48.61837891      49.38214797
H       48.57222390      50.60558160      50.77817515
H       50.01087259      51.50969546      50.65472805
H       49.27866123      51.23528384      49.20964690
H       51.75389985      49.07158206      48.87879944
