9
Lattice="100.0 0.0 0.0 0.0 100.0 0.0 0.0 0.0 100.0" Properties=species:S:1:pos:R:3 Energy=-97074.78499772529 Energy_pyscf=-97073.494874138 pbc="F F F"
C       50.05218469      49.41739292      49.90679954
C       49.44484185      50.77243855      50.07442389
O       51.46472895      49.35543359      49.41969440
H       49.98455409      48.68072373      50.83797227
H       49.46128766      48.91135789      49.20008168
H       48.34990299      50.67643473      50.65869903
H       50.12206229      51.45985382      50.64243333
H       49.18090008      51.35046265      49.15046992
H       51.62974004      48.44296393      49.23239520
