9
Lattice="100.0 0.0 0.0 0.0 100.0 0.0 0.0 0.0 100.0" Properties=species:S:1:pos:R:3 Energy=-97075.15241533435 Energy_pyscf=-97075.00812161546 pbc="F F F"
C       50.16264327      49.32579285      50.13020578
C       49.49279965      50.65974160      50.13564847
O       51.65761897      49.37392920      49.71893018
H       50.17773434      48.85584963      51.08245331
H       49.64830810      48.50055928      49.54177043
H       48.47740706      50.69894921      50.52024095
H       50.05188817      51.32477362      50.79846679
H       49.47119618      51.26254921      49.23139134
H       51.37682296      49.13957928      48.79093892
