9
Lattice="100.0 0.0 0.0 0.0 100.0 0.0 0.0 0.0 100.0" Properties=species:S:1:pos:R:3 Energy=-97074.26673125761 Energy_pyscf=-97074.97565076314 pbc="F F F"
C       50.08251960      49.13802692      50.11846050
C       49.39192026      50.51001617      50.10408318
O       51.46814840      49.29315536      49.62083620
H       50.11438780      48.71430767      51.07204396
H       49.52228963      48.53817364      49.41184438
H       50.04814096      51.22434644      49.65227322
H       48.32848631      50.66384721      49.66075283
H       49.15657462      50.94772584      51.10322300
H       51.40357705      49.90430710      48.92930478
