9
Lattice="100.0 0.0 0.0 0.0 100.0 0.0 0.0 0.0 100.0" Properties=species:S:1:pos:R:3 Energy=-97081.07008181686 Energy_pyscf=-97080.99732304405 pbc="F F F"
C       49.96219228      49.23195280      49.86593039
C       49.32147808      50.60309270      49.98761378
O       51.38154465      49.35917086      49.62060349
H       49.80011507      48.53655645      50.71500093
H       49.64706584      48.75260795      48.86803820
H       49.61535392      51.20665985      49.11441839
H       48.16030049      50.56839751      50.12694964
H       49.82768404      51.09936204      50.80246349
H       51.69857105      48.62651183      50.14967881
