9
Lattice="100.0 0.0 0.0 0.0 100.0 0.0 0.0 0.0 100.0" Properties=species:S:1:pos:R:3 Energy=-97076.59839905436 Energy_pyscf=-97074.80536902252 pbc="F F F"
C       50.18290841      49.30587265      50.16429389
C       49.38655468      50.71263980      50.10074595
O       51.44268405      49.35272516      49.70855616
H       50.12477740      48.80676064      51.08730315
H       49.51908670      48.50216764      49.60302741
H       48.56812970      50.51083433      50.86876408
H       49.98370055      51.45177155      50.52590823
H       49.10494382      51.00045029      49.07018578
H       51.48535070      49.77693540      48.83835765
