9
Lattice="100.0 0.0 0.0 0.0 100.0 0.0 0.0 0.0 100.0" Properties=species:S:1:pos:R:3 Energy=-97070.29928559858 Energy_pyscf=-97069.82514619025 pbc="F F F"
C       49.68205862      49.26566488      49.71407360
C       49.08332091      50.71583965      50.01603832
O       51.10572153      49.40155324      49.48536550
H       49.56738009      48.70610650      50.65212053
H       49.27017051      48.38994166      49.12801422
H       50.00649958      51.31150752      49.98876003
H       48.44250329      51.02358699      49.16217811
H       48.47473136      50.80401337      50.95046028
H       51.64229406      49.19095208      50.23317395
