9
Lattice="100.0 0.0 0.0 0.0 100.0 0.0 0.0 0.0 100.0" Properties=species:S:1:pos:R:3 Energy=-97073.41461024297 Energy_pyscf=-97072.78826295638 pbc="F F F"
C       50.14086518      49.24479202      50.08644611
C       49.31104753      50.61634791      50.08018199
O       51.58616008      49.25807716      49.69376150
H       50.08771993      48.77329578      51.04310250
H       49.58557652      48.53851171      49.41024828
H       49.71104988      51.59182534      49.84751152
H       48.36556891      50.59834345      49.53974472
H       49.18695470      50.87869209      51.19557036
H       51.51045676      49.45620248      48.75228554
