9
Lattice="100.0 0.0 0.0 0.0 100.0 0.0 0.0 0.0 100.0" Properties=species:S:1:pos:R:3 Energy=-97077.87240702964 Energy_pyscf=-97072.67309660965 pbc="F F F"
C       49.74484187      49.25747559      49.88378788
C       49.18021802      50.67680410      49.97035731
O       51.05572342      49.35971262      49.64420122
H       49.65142995      48.85357239      50.86840116
H       49.12835921      48.71476483      49.09080584
H       48.43151758      50.85455915      50.75863057
H       50.00067612      51.46757689      49.90341726
H       48.58436282      50.71301470      48.97372619
H       51.59742018      48.55435517      49.94374964
