9
Lattice="100.0 0.0 0.0 0.0 100.0 0.0 0.0 0.0 100.0" Properties=species:S:1:pos:R:3 Energy=-97076.4269719048 Energy_pyscf=-97076.22974914403 pbc="F F F"
C       49.80914027      49.33755611      49.97308588
C       49.18706810      50.78559703      50.06071755
O       51.21651917      49.35132843      49.79405669
H       49.51628989      48.69114898      50.71709045
H       49.44248092      48.93539294      48.98598169
H       48.31805589      50.81341334      50.78518451
H       50.04211481      51.45724429      50.22239795
H       48.80393771      51.10593524      49.07360013
H       51.80985095      49.04244929      50.49754037
