9
Lattice="100.0 0.0 0.0 0.0 100.0 0.0 0.0 0.0 100.0" Properties=species:S:1:pos:R:3 Energy=-97070.29861036951 Energy_pyscf=-97070.14987295802 pbc="F F F"
C       50.14556170      49.20696759      49.99559261
C       49.47528115      50.60447833      50.16131717
O       51.72255224      49.07772257      49.67923589
H       49.99026802      48.64715842      50.98073561
H       49.56683436      48.67978777      49.24212084
H       48.33570832      50.42482177      50.36648358
H       49.88175628      51.30253395      50.93914590
H       49.24989694      51.29552996      49.25229924
H       51.86775268      49.72632788      48.98052681
