9
Lattice="100.0 0.0 0.0 0.0 100.0 0.0 0.0 0.0 100.0" Properties=species:S:1:pos:R:3 Energy=-97069.90393094017 Energy_pyscf=-97069.49636406502 pbc="F F F"
C       50.15852376      49.30223315      50.02342088
C       49.60055331      50.70369525      50.10431301
O       51.54420458      49.30828562      49.46112044
H       50.33746691      49.08565996      51.11281036
H       49.46500768      48.57201021      49.65439337
H       49.61853881      51.18589576      51.17529649
H       50.02624639      51.37274332      49.43429466
H       48.58414461      50.81102536      49.61058022
H       51.63173279      50.07340093      48.93406163
