9
Lattice="100.0 0.0 0.0 0.0 100.0 0.0 0.0 0.0 100.0" Properties=species:S:1:pos:R:3 Energy=-97082.81210769137 Energy_pyscf=-97082.63401995943 pbc="F F F"
C       49.99060971      49.34360902      49.96501255
C       49.46275083      50.77479787      50.10611854
O       51.32552069      49.40442124      49.53860761
H       50.05167973      48.80300777      50.90356090
H       49.38649168      48.70718229      49.26168562
H       48.41585838      50.75110380      50.49571596
H       50.09071922      51.39646772      50.82866127
H       49.38069357      51.22379564      49.10710367
H       51.60007752      48.63148586      48.90390625
