9
Lattice="100.0 0.0 0.0 0.0 100.0 0.0 0.0 0.0 100.0" Properties=species:S:1:pos:R:3 Energy=-97073.16031267995 Energy_pyscf=-97072.99844402864 pbc="F F F"
C       50.04715382      49.42877180      49.80819087
C       49.35422725      50.86193919      49.88583805
O       51.53300880      49.45942552      49.74776005
H       49.89260522      48.83148372      50.68649168
H       49.70085602      48.71061513      48.99570978
H       49.90977435      51.28242815      50.72360148
H       49.76559390      51.27575993      48.95681338
H       48.20401314      50.69080409      49.98684338
H       51.86820177      50.32615116      49.90492759
