9
Lattice="100.0 0.0 0.0 0.0 100.0 0.0 0.0 0.0 100.0" Properties=species:S:1:pos:R:3 Energy=-97073.89831841979 Energy_pyscf=-97073.73817145245 pbc="F F F"
C       50.14456437      49.20157187      50.09475744
C       49.41253149      50.58803800      50.09405441
O       51.46786220      49.18397640      49.62053277
H       50.22570595      48.86957682      51.02288003
H       49.44400994      48.54059687      49.58042175
H       49.96183967      51.47543375      49.83862016
H       48.46725441      50.64930110      49.52739740
H       48.94306462      50.75758218      51.13573650
H       51.43761422      49.68587673      48.77444419
