9
Lattice="100.0 0.0 0.0 0.0 100.0 0.0 0.0 0.0 100.0" Properties=species:S:1:pos:R:3 Energy=-97081.1899467081 Energy_pyscf=-97081.03622496084 pbc="F F F"
C       49.93010850      49.38411766      50.03001582
C       49.37133290      50.81316886      50.06811102
O       51.35837275      49.33417531      49.80188712
H       49.81449229      48.89426634      51.00401591
H       49.46286129      48.73030070      49.30112996
H       48.35077511      50.70547885      50.36931958
H       49.81276210      51.46416958      50.84430587
H       49.55674441      51.37060008      49.18108472
H       51.53538285      48.44750826      49.61808941
