9
Lattice="100.0 0.0 0.0 0.0 100.0 0.0 0.0 0.0 100.0" Properties=species:S:1:pos:R:3 Energy=-97073.79596836652 Energy_pyscf=-97073.65209621706 pbc="F F F"
C       49.71433481      49.25613258      50.02564033
C       49.33994114      50.81823847      50.06843821
O       51.05124364      49.33551251      49.43789962
H       49.66233752      48.73911184      50.98771440
H       49.22763025      48.67094176      49.26566634
H       48.20185898      50.78187722      50.24343491
H       49.89460048      51.30537301      50.92792237
H       49.34186656      51.20892414      49.00309006
H       51.72647461      49.38022435      50.11135780
