9
Lattice="100.0 0.0 0.0 0.0 100.0 0.0 0.0 0.0 100.0" Properties=species:S:1:pos:R:3 Energy=-97080.10398199942 Energy_pyscf=-97079.95478008142 pbc="F F F"
C       50.16573827      49.27869321      50.08626811
C       49.51433821      50.70318593      50.11859465
O       51.61937746      49.24463500      49.68603672
H       50.18748636      48.96576901      51.11243626
H       49.60083624      48.47964595      49.55266437
H       48.45064642      50.70073664      50.55350749
H       50.03773492      51.38088406      50.86431282
H       49.38140793      51.27265186      49.24105806
H       51.58483252      49.11918591      48.74201731
