9
Lattice="100.0 0.0 0.0 0.0 100.0 0.0 0.0 0.0 100.0" Properties=species:S:1:pos:R:3 Energy=-97068.85458316068 Energy_pyscf=-97067.19054707237 pbc="F F F"
C       50.12715589      49.40029659      50.11578684
C       49.54320076      50.75277254      50.04341215
O       51.30102088      49.38667909      49.48349160
H       50.42394476      49.08405224      51.07545041
H       49.54291822      48.58902624      49.55062771
H       49.97662421      51.42694926      50.81007017
H       49.69703842      51.49674342      49.21239990
H       48.44840336      50.64703249      50.13353466
H       51.38783047      50.10478773      48.81808845
