9
Lattice="100.0 0.0 0.0 0.0 100.0 0.0 0.0 0.0 100.0" Properties=species:S:1:pos:R:3 Energy=-97079.04154544092 Energy_pyscf=-97078.86827012752 pbc="F F F"
C       49.73732715      49.26214235      49.86430156
C       49.11277132      50.66484971      49.93201283
O       51.18029615      49.54120024      49.79590657
H       49.44521770      48.80260021      50.85216238
H       49.39027873      48.67898888      49.04853187
H       49.85805700      51.49065772      49.93978083
H       48.38487998      50.88519151      49.17142131
H       48.45614051      50.74563562      50.85333116
H       51.74721195      48.77398357      49.85464205
