9
Lattice="100.0 0.0 0.0 0.0 100.0 0.0 0.0 0.0 100.0" Properties=species:S:1:pos:R:3 Energy=-97077.26807991232 Energy_pyscf=-97076.4318271911 pbc="F F F"
C       49.91234596      49.19621912      50.03749474
C       49.31810033      50.59934065      50.13702906
O       51.33301905      49.11265621      49.73772433
H       49.86212488      48.65191904      50.98040112
H       49.41607556      48.62609397      49.15175885
H       48.44569675      50.88150436      49.52751422
H       48.89828381      50.72861961      51.17912390
H       50.04787314      51.26652534      49.78718527
H       51.55824017      49.71148249      49.00633001
