9
Lattice="100.0 0.0 0.0 0.0 100.0 0.0 0.0 0.0 100.0" Properties=species:S:1:pos:R:3 Energy=-97076.7264291748 Energy_pyscf=-97082.23661024147 pbc="F F F"
C       50.64722516      49.53683288      50.31360619
C       49.42172443      50.11346889      49.51001505
O       51.37401413      50.54083056      51.00761849
H       50.23750264      48.73655217      51.00742921
H       51.31698364      48.99410162      49.68972335
H       48.54719794      50.31842727      50.14537505
H       49.78448189      50.96965015      49.06076719
H       49.03950081      49.32999961      48.80275041
H       50.75896446      51.25205905      51.15090850
