9
Lattice="100.0 0.0 0.0 0.0 100.0 0.0 0.0 0.0 100.0" Properties=species:S:1:pos:R:3 Energy=-97067.77654051247 Energy_pyscf=-97068.6765765988 pbc="F F F"
C       49.79773475      49.22207781      49.76821420
C       49.06128589      50.61482339      50.00301991
O       51.21385611      49.11902193      49.41337849
H       49.60782563      48.79650031      50.74288024
H       49.24861176      48.62369388      49.01723803
H       49.85424288      51.54407801      50.06961152
H       48.31613825      51.02663986      49.10814188
H       48.52140859      50.77463524      50.95191272
H       51.70016646      49.09752831      50.30084903
