9
Lattice="100.0 0.0 0.0 0.0 100.0 0.0 0.0 0.0 100.0" Properties=species:S:1:pos:R:3 Energy=-97072.33058198207 Energy_pyscf=-97070.80385737336 pbc="F F F"
C       50.50047266      49.43241674      50.44111369
C       49.34053433      49.96835383      49.70604893
O       51.29119032      50.46584709      51.15731805
H       50.03652992      48.66788840      51.23169794
H       51.26872255      49.01563392      49.82439701
H       48.65581778      49.16660236      49.61628566
H       49.02276746      50.89962598      50.24562017
H       49.61951224      50.47182574      48.65961238
H       50.92229047      51.31852834      51.13770552
