9
Lattice="100.0 0.0 0.0 0.0 100.0 0.0 0.0 0.0 100.0" Properties=species:S:1:pos:R:3 Energy=-97078.12924016705 Energy_pyscf=-97076.17053766656 pbc="F F F"
C       50.65703062      49.57955487      50.57705612
C       49.53986158      50.18114206      49.78127375
O       51.44551214      50.58819850      51.23131804
H       50.33352164      48.68330035      51.17883505
H       51.38005141      49.05619751      49.84262940
H       49.26362895      49.82494395      48.73174859
H       48.50663099      49.95090884      50.23487167
H       49.60766888      51.25581136      49.68638290
H       50.86347193      51.32939704      51.19512232
