9
Lattice="100.0 0.0 0.0 0.0 100.0 0.0 0.0 0.0 100.0" Properties=species:S:1:pos:R:3 Energy=-97063.61514538422 Energy_pyscf=-97064.3059890222 pbc="F F F"
C       50.09480008      49.21660201      49.96461643
C       49.49935272      50.58298953      50.17667426
O       51.44104397      49.57150981      49.85859691
H       49.98741583      48.76227148      50.92292601
H       49.62983990      48.55116559      49.10495153
H       48.25760585      50.44381635      50.45303008
H       50.00089210      51.10761034      50.99617947
H       49.70619489      50.95069030      49.20836069
H       51.62242765      49.76444371      48.90799961
