9
Lattice="100.0 0.0 0.0 0.0 100.0 0.0 0.0 0.0 100.0" Properties=species:S:1:pos:R:3 Energy=-97076.35131936196 Energy_pyscf=-97076.21685075981 pbc="F F F"
C       50.56949462      49.47253058      50.48831016
C       49.44311959      49.96062570      49.76731237
O       51.16108777      50.44557807      51.36511817
H       50.30114725      48.63307260      51.10120808
H       51.19598966      49.06050919      49.74629099
H       49.28079694      49.18505460      48.98006071
H       48.58516897      50.31963731      50.29537031
H       49.79169709      50.85206458      49.06814490
H       51.47891990      51.16686763      50.85530896
