9
Lattice="100.0 0.0 0.0 0.0 100.0 0.0 0.0 0.0 100.0" Properties=species:S:1:pos:R:3 Energy=-97078.39278831285 Energy_pyscf=-97075.09722266787 pbc="F F F"
C       50.23296050      49.63313825      50.32206345
C       49.06725837      50.34996566      49.61398302
O       50.90444682      50.72341984      51.01869780
H       50.03468413      48.85379023      51.16185175
H       50.90510669      49.22116027      49.57795487
H       49.49978435      50.95177602      48.94215034
H       48.50328499      49.47871260      49.11375402
H       48.43895034      50.87438311      50.33812315
H       51.58635424      51.13180937      50.43126272
