9
Lattice="100.0 0.0 0.0 0.0 100.0 0.0 0.0 0.0 100.0" Properties=species:S:1:pos:R:3 Energy=-97076.7298877008 Energy_pyscf=-97075.785455418 pbc="F F F"
C       50.57460998      49.48250723      50.55173550
C       49.33920550      49.95376209      49.66887198
O       51.41404404      50.44266080      51.24877155
H       50.23528241      48.70275011      51.27454593
H       51.17842477      48.92053558      49.87657977
H       49.31149825      49.31759528      48.76515895
H       48.43901058      50.06492352      50.22703431
H       49.76260909      50.96286110      49.22242261
H       51.57475362      51.28528960      50.81758840
