9
Lattice="100.0 0.0 0.0 0.0 100.0 0.0 0.0 0.0 100.0" Properties=species:S:1:pos:R:3 Energy=-97078.11167184456 Energy_pyscf=-97077.270874289 pbc="F F F"
C       50.05095557      49.34999449      49.86956113
C       49.47757385      50.74574398      50.02015129
O       51.41234258      49.39557359      49.41450122
H       50.01287746      48.80168050      50.96573939
H       49.29641248      48.76508425      49.35041505
H       48.43958826      50.69864885      50.50500979
H       50.00753634      51.34478021      50.80535284
H       49.36875174      51.33756866      49.15434557
H       51.62546402      48.60850899      49.00826081
