9
Lattice="100.0 0.0 0.0 0.0 100.0 0.0 0.0 0.0 100.0" Properties=species:S:1:pos:R:3 Energy=-97079.29339690926 Energy_pyscf=-97081.72538642926 pbc="F F F"
C       50.26259481      49.68208038      50.34619163
C       49.05257283      50.26982866      49.60500452
O       50.92281399      50.75929642      51.06353227
H       50.09133929      48.85174795      51.09482452
H       50.91032161      49.19088275      49.67510723
H       49.53436523      51.02849324      48.93393536
H       48.46939705      49.46019378      49.10407611
H       48.42511676      50.91587034      50.34192791
H       51.55698462      51.06606746      50.39572050
