9
Lattice="100.0 0.0 0.0 0.0 100.0 0.0 0.0 0.0 100.0" Properties=species:S:1:pos:R:3 Energy=-97081.46940103179 Energy_pyscf=-97081.3320398646 pbc="F F F"
C       50.14728812      49.62518077      50.32261778
C       49.04665593      50.30486456      49.51412172
O       51.08612724      50.73460230      50.67854478
H       49.76824268      48.98692546      51.24191919
H       50.70629773      48.93921046      49.65808444
H       48.29490862      49.53647234      49.17892385
H       48.52403101      50.96342931      50.18516585
H       49.45796721      50.83002858      48.70046693
H       51.70008298      50.20541136      51.29063657
