9
Lattice="100.0 0.0 0.0 0.0 100.0 0.0 0.0 0.0 100.0" Properties=species:S:1:pos:R:3 Energy=-97075.6006451126 Energy_pyscf=-97075.90467033895 pbc="F F F"
C       50.21730141      49.63946017      50.28243614
C       49.04822594      50.26673594      49.52814015
O       50.92571809      50.68218633      50.92389093
H       49.69215867      48.93565343      50.96610768
H       50.77864693      48.93677627      49.70743027
H       48.25965617      49.54959433      49.43456878
H       48.66684132      51.05146458      50.02394119
H       49.37900045      50.75488615      48.64857921
H       51.75091391      50.25550791      51.24755774
