9
Lattice="100.0 0.0 0.0 0.0 100.0 0.0 0.0 0.0 100.0" Properties=species:S:1:pos:R:3 Energy=-97069.71732605204 Energy_pyscf=-97069.54473208365 pbc="F F F"
C       50.29591794      49.57896253      50.47270676
C       49.14624554      50.13395547      49.56746197
O       51.28042263      50.46235701      50.94585394
H       49.81223080      49.15019383      51.36153317
H       50.80542639      48.92993828      49.74340406
H       48.93801363      49.62807662      48.57678914
H       48.29848877      49.85468035      50.15587706
H       49.40840505      51.23574350      49.41825210
H       51.87939624      50.92286207      50.36537958
