9
Lattice="100.0 0.0 0.0 0.0 100.0 0.0 0.0 0.0 100.0" Properties=species:S:1:pos:R:3 Energy=-97076.7298877008 Energy_pyscf=-97075.56605602923 pbc="F F F"
C       50.57086063      49.47709982      50.55229869
C       49.33864163      49.96298781      49.67437030
O       51.42099073      50.43168932      51.24521928
H       50.22562689      48.69553819      51.26567939
H       51.17800590      48.92336980      49.87725870
H       49.31350557      49.32381746      48.75983757
H       48.43840214      50.07457880      50.22713123
H       49.75937600      50.96833485      49.22612582
H       51.57313479      51.28281666      50.82701904
