9
Lattice="100.0 0.0 0.0 0.0 100.0 0.0 0.0 0.0 100.0" Properties=species:S:1:pos:R:3 Energy=-97072.32599006039 Energy_pyscf=-97072.04412913353 pbc="F F F"
C       50.09280054      49.28719089      50.13007696
C       49.41136009      50.61467986      50.18025328
O       51.44887006      49.10597201      49.76695582
H       50.21188586      48.80866988      51.11816270
H       49.44232175      48.63133696      49.45912070
H       48.52630172      50.72829822      50.72773566
H       50.30554717      51.32811844      50.41463899
H       49.37438432      50.99987563      49.15430374
H       51.72611617      49.63864650      48.97491325
