9
Lattice="100.0 0.0 0.0 0.0 100.0 0.0 0.0 0.0 100.0" Properties=species:S:1:pos:R:3 Energy=-97078.11167184456 Energy_pyscf=-97077.96114040154 pbc="F F F"
C       50.51629998      49.76430439      50.10719269
C       49.47321986      50.46685507      49.26573163
O       51.39512596      50.69562425      50.75540673
H       49.84525643      49.00157841      50.79369386
H       51.06313062      49.01817034      49.54026939
H       48.84833950      49.75369681      48.68292281
H       48.79364872      50.99350695      49.86743268
H       49.87076252      51.17688785      48.44531598
H       51.77948994      50.32241154      51.49792965
