9
Lattice="100.0 0.0 0.0 0.0 100.0 0.0 0.0 0.0 100.0" Properties=species:S:1:pos:R:3 Energy=-97078.38499296534 Energy_pyscf=-97083.36551762972 pbc="F F F"
C       50.62847936      49.51704809      50.29228052
C       49.46561533      50.08040772      49.55399597
O       51.38010175      50.54175443      51.00699094
H       50.25877719      48.72723404      50.99716509
H       51.32597625      48.97661565      49.69409771
H       48.55991446      50.32070773      50.10655049
H       49.76506377      50.97679436      49.05301060
H       49.01941882      49.37198966      48.79438608
H       50.73410004      51.28447144      51.17905547
