9
Lattice="100.0 0.0 0.0 0.0 100.0 0.0 0.0 0.0 100.0" Properties=species:S:1:pos:R:3 Energy=-97079.36364114622 Energy_pyscf=-97077.03386426735 pbc="F F F"
C       50.15355351      49.65392826      50.51577622
C       48.92693137      50.33468464      49.69352357
O       50.88560490      50.72506355      51.13845660
H       49.56185577      49.02766794      51.18899775
H       50.78746086      48.97658650      49.89815537
H       49.22706808      50.65624613      48.71967632
H       48.22064998      49.48668885      49.77460778
H       48.59812070      51.11461153      50.38177854
H       51.80557357      50.55149748      51.11277725
