9
Lattice="100.0 0.0 0.0 0.0 100.0 0.0 0.0 0.0 100.0" Properties=species:S:1:pos:R:3 Energy=-97077.14170024094 Energy_pyscf=-97075.58286879538 pbc="F F F"
C       50.26377331      49.63610442      50.20203374
C       49.09821956      50.32374204      49.38886638
O       51.01082562      50.78569761      50.83535457
H       49.98576448      49.03300970      51.05639347
H       50.89125355      49.18425265      49.49772254
H       48.65835876      49.47722867      48.86687366
H       48.26914001      50.72817690      49.87302387
H       49.46039437      51.00676901      48.59817903
H       51.71472832      50.40404828      51.41833704
