9
Lattice="100.0 0.0 0.0 0.0 100.0 0.0 0.0 0.0 100.0" Properties=species:S:1:pos:R:3 Energy=-97069.82592150502 Energy_pyscf=-97070.19466228737 pbc="F F F"
C       50.02754149      49.32292655      49.70035234
C       49.40761925      50.65698682      49.89543959
O       51.39925592      49.39325049      49.52288508
H       49.98164339      49.02273341      50.74011105
H       49.58930610      48.56391738      49.08037912
H       48.25345384      50.63205192      49.81091091
H       49.54279020      51.15279402      50.90694994
H       49.77252103      51.46430700      49.05765994
H       51.83599147      49.74749893      50.29512601
