9
Lattice="100.0 0.0 0.0 0.0 100.0 0.0 0.0 0.0 100.0" Properties=species:S:1:pos:R:3 Energy=-97078.71435028054 Energy_pyscf=-97077.6173219112 pbc="F F F"
C       50.13185762      49.67658856      50.49342360
C       49.02548987      50.27088020      49.72740167
O       50.84125370      50.74438558      51.17542778
H       49.54908874      49.05018424      51.25817854
H       50.85643455      48.99887692      49.86326224
H       49.18990035      50.67713949      48.76387872
H       48.16823925      49.49317143      49.77226931
H       48.58865151      51.09284457      50.32127010
H       51.82990379      50.50977915      51.09179775
