9
Lattice="100.0 0.0 0.0 0.0 100.0 0.0 0.0 0.0 100.0" Properties=species:S:1:pos:R:3 Energy=-97067.77654051247 Energy_pyscf=-97066.24517763368 pbc="F F F"
C       49.98028387      49.37331708      49.83348094
C       49.21166771      50.76487696      49.77698830
O       51.32191948      49.16876039      49.26501819
H       49.89804692      48.97364193      50.88021230
H       49.36844200      48.59398047      49.27506129
H       48.96368530      50.86117451      50.80693570
H       49.79099775      51.64078643      49.33388217
H       48.09855444      50.90930706      49.16170483
H       51.94779346      49.61815264      49.92364058
