9
Lattice="100.0 0.0 0.0 0.0 100.0 0.0 0.0 0.0 100.0" Properties=species:S:1:pos:R:3 Energy=-97072.6136208457 Energy_pyscf=-97076.10986928547 pbc="F F F"
C       50.20660466      49.72076843      50.30714063
C       49.04155548      50.25245280      49.64218527
O       50.90271526      50.71229046      51.02107661
H       50.12939406      48.88017879      51.09356823
H       50.91898510      49.20987028      49.67093839
H       49.55951212      50.90290922      48.93884159
H       48.48580300      49.56618930      49.08657699
H       48.41517189      50.89000900      50.36588403
H       51.56675853      51.10437390      50.41888982
