9
Lattice="100.0 0.0 0.0 0.0 100.0 0.0 0.0 0.0 100.0" Properties=species:S:1:pos:R:3 Energy=-97078.32875829405 Energy_pyscf=-97078.19462028427 pbc="F F F"
C       50.11504127      49.58564445      50.27950355
C       49.01241719      50.26715422      49.47950290
O       51.09980982      50.68450852      50.61384749
H       49.64351220      49.07869178      51.22979347
H       50.71930439      48.77580607      49.82310772
H       48.34392389      49.59422263      49.03417285
H       48.57298531      50.79544429      50.32935661
H       49.42311349      50.99187010      48.74431728
H       51.80093006      50.38298319      51.24191228
