9
Lattice="100.0 0.0 0.0 0.0 100.0 0.0 0.0 0.0 100.0" Properties=species:S:1:pos:R:3 Energy=-97068.1516781064 Energy_pyscf=-97067.95926553177 pbc="F F F"
C       49.91890924      49.33020645      49.75885792
C       49.34435387      50.65178066      49.89148988
O       51.46846411      49.35786812      49.53820183
H       49.84571983      48.80837617      50.78022589
H       49.69626192      48.62844219      49.00542227
H       48.32517264      50.66223600      49.85540653
H       49.58929119      51.27033119      50.86476679
H       49.74898689      51.40521048      49.07096477
H       51.87815515      49.88608991      50.20962678
