9
Lattice="100.0 0.0 0.0 0.0 100.0 0.0 0.0 0.0 100.0" Properties=species:S:1:pos:R:3 Energy=-97072.72911884266 Energy_pyscf=-97072.62860949917 pbc="F F F"
C       49.96121100      49.37421536      49.84308386
C       49.49383170      50.92069932      49.96331806
O       51.37495787      49.49101974      49.51302597
H       49.69166078      48.72117978      50.80291828
H       49.38221443      48.85703773      49.07955784
H       49.86047788      51.45871931      49.15272997
H       48.28128435      50.82778530      49.79079254
H       49.73200437      51.30583160      50.92100622
H       51.71258737      48.52411504      49.47430430
