9
Lattice="100.0 0.0 0.0 0.0 100.0 0.0 0.0 0.0 100.0" Properties=species:S:1:pos:R:3 Energy=-97070.11376508509 Energy_pyscf=-97074.2237359319 pbc="F F F"
C       50.18435144      49.28835047      50.00219216
C       49.51222365      50.76504415      50.14351505
O       51.54065583      49.36494618      49.58003847
H       50.21685046      49.10759792      51.05709905
H       49.60657944      48.44078599      49.52766154
H       49.66074170      51.18192039      51.11259831
H       50.12940425      51.33089457      49.36008875
H       48.48766431      50.87923549      49.82423992
H       51.64010561      50.03631343      48.89653888
