9
Lattice="100.0 0.0 0.0 0.0 100.0 0.0 0.0 0.0 100.0" Properties=species:S:1:pos:R:3 Energy=-97076.81986325154 Energy_pyscf=-97069.51703811453 pbc="F F F"
C       50.57228433      49.51780573      50.44799824
C       49.46567530      50.16365171      49.75024087
O       51.44395868      50.56538768      51.22909174
H       50.31071956      48.67649011      51.22115578
H       51.34709865      49.29489880      49.78990047
H       49.25123404      49.70509111      48.77027449
H       48.56067567      50.00930584      50.25778937
H       49.71117056      51.19777514      49.49584459
H       50.92000413      51.34527965      51.43393061
