9
Lattice="100.0 0.0 0.0 0.0 100.0 0.0 0.0 0.0 100.0" Properties=species:S:1:pos:R:3 Energy=-97072.14927421077 Energy_pyscf=-97056.81577795219 pbc="F F F"
C       50.00570725      49.30041870      49.81258550
C       49.38401184      50.72006201      49.88865583
O       51.32993743      49.41059680      49.61747144
H       49.96737572      48.93015922      50.74840682
H       49.47690072      48.73815725      48.88184443
H       48.31588687      50.51753087      49.86845970
H       49.47144846      51.26373538      50.94043297
H       49.83679222      51.20758458      49.00685337
H       52.01517625      49.84421876      50.25919526
