9
Lattice="100.0 0.0 0.0 0.0 100.0 0.0 0.0 0.0 100.0" Properties=species:S:1:pos:R:3 Energy=-97084.58217094894 Energy_pyscf=-97084.43812369303 pbc="F F F"
C       50.11054522      49.72700920      50.51808498
C       48.94811363      50.29609598      49.68762888
O       51.02524361      50.77132701      50.92508475
H       49.81947618      49.16988561      51.48014535
H       50.63281304      48.95556731      49.90928058
H       49.15338051      50.83642913      48.75413695
H       48.24684341      49.42146791      49.52348673
H       48.38334688      51.01818753      50.37202650
H       51.84329159      50.32690001      51.28013047
