9
Lattice="100.0 0.0 0.0 0.0 100.0 0.0 0.0 0.0 100.0" Properties=species:S:1:pos:R:3 Energy=-97076.7298877008 Energy_pyscf=-97076.10677255475 pbc="F F F"
C       50.56854252      49.47545864      50.56030331
C       49.33863227      49.96095371      49.67666577
O       51.41100071      50.43343792      51.25518641
H       50.24460648      48.69856546      51.27569038
H       51.17592067      48.92392108      49.87350531
H       49.31067275      49.32377967      48.75547969
H       48.44512579      50.07796136      50.23397186
H       49.75252982      50.96951067      49.22682608
H       51.57147749      51.27426787      50.82025626
