9
Lattice="100.0 0.0 0.0 0.0 100.0 0.0 0.0 0.0 100.0" Properties=species:S:1:pos:R:3 Energy=-97068.1516781064 Energy_pyscf=-97068.01093250923 pbc="F F F"
C       50.19794456      49.58893294      50.34288368
C       49.11429883      50.20574925      49.60642444
O       51.10598093      50.58547712      51.12408456
H       50.11481502      48.89001892      51.11233381
H       50.90529907      49.15787690      49.55276103
H       49.45444470      50.95093828      48.75734186
H       48.42253664      49.56707569      49.19436078
H       48.49833829      50.98988354      50.26181031
H       51.39393137      51.29056053      50.55910878
