9
Lattice="100.0 0.0 0.0 0.0 100.0 0.0 0.0 0.0 100.0" Properties=species:S:1:pos:R:3 Energy=-97078.11167184456 Energy_pyscf=-97077.62053170608 pbc="F F F"
C       50.02741341      49.23847476      49.82262329
C       49.37733179      50.59910907      49.92090510
O       51.44679158      49.33233552      49.61172034
H       49.62348583      48.60680983      50.78314162
H       49.55572848      48.66689492      49.02803393
H       49.58478513      51.30563855      49.17013027
H       48.27929610      50.52379889      50.00055995
H       49.61011667      51.08351314      50.95704346
H       51.87624197      48.59656710      49.94315247
