9
Lattice="100.0 0.0 0.0 0.0 100.0 0.0 0.0 0.0 100.0" Properties=species:S:1:pos:R:3 Energy=-97080.10398199942 Energy_pyscf=-97079.95421892233 pbc="F F F"
C       50.09481425      49.63533628      50.50139855
C       48.96551447      50.24878448      49.60534364
O       50.94503422      50.63733360      51.24135540
H       49.57199265      49.12894885      51.28981613
H       50.73885139      48.85471879      50.03422146
H       48.25966816      49.45527721      49.16632065
H       48.23077837      50.85534535      50.22302123
H       49.18713826      50.82802305      48.75245937
H       51.67018291      50.79475724      50.64346282
