9
Lattice="100.0 0.0 0.0 0.0 100.0 0.0 0.0 0.0 100.0" Properties=species:S:1:pos:R:3 Energy=-97076.7298877008 Energy_pyscf=-97076.01345654036 pbc="F F F"
C       50.57414597      49.47623264      50.55149813
C       49.33823197      49.96509365      49.67693581
O       51.41491475      50.43040165      51.24790667
H       50.22403589      48.71475141      51.27287988
H       51.17395002      48.92299175      49.88068888
H       49.31546028      49.31914839      48.75359452
H       48.43606562      50.08021642      50.23595604
H       49.75959650      50.96230913      49.22632821
H       51.57610597      51.27419622      50.81854325
