9
Lattice="100.0 0.0 0.0 0.0 100.0 0.0 0.0 0.0 100.0" Properties=species:S:1:pos:R:3 Energy=-97080.32823602903 Energy_pyscf=-97080.63243030851 pbc="F F F"
C       50.15797478      49.39120283      50.04114863
C       49.50982373      50.85586883      50.07625452
O       51.46596532      49.41909771      49.50662593
H       50.18103226      49.05784614      51.13139230
H       49.62038934      48.60501889      49.50356255
H       50.17480056      51.33908829      50.75626703
H       49.50476227      51.34803120      49.04363047
H       48.44294785      50.71007374      50.31953414
H       51.41892729      50.12892364      48.86634162
