9
Lattice="100.0 0.0 0.0 0.0 100.0 0.0 0.0 0.0 100.0" Properties=species:S:1:pos:R:3 Energy=-97079.10324497489 Energy_pyscf=-97080.79341147942 pbc="F F F"
C       50.25855371      49.65770899      50.37359937
C       49.02017826      50.26021576      49.61001486
O       50.93101370      50.72468722      50.98331313
H       50.06648792      48.85784144      51.10789138
H       50.88570690      49.21676951      49.64121070
H       49.51870387      50.97530088      48.94958059
H       48.49498177      49.47609321      49.09707751
H       48.43615384      50.90621630      50.33617897
H       51.58245601      51.11213151      50.43557245
