9
Lattice="100.0 0.0 0.0 0.0 100.0 0.0 0.0 0.0 100.0" Properties=species:S:1:pos:R:3 Energy=-97077.27811604219 Energy_pyscf=-97076.6186675255 pbc="F F F"
C       50.17069343      49.41855307      50.00063860
C       49.51314452      50.72286334      50.07187016
O       51.53621411      49.39257939      49.51182395
H       50.17684205      49.06423778      51.12943374
H       49.57484536      48.67861577      49.53534225
H       50.12685189      51.32859691      50.69550767
H       49.36888159      51.34827301      49.12020877
H       48.41437633      50.78628248      50.31779462
H       51.57770158      50.09598508      48.86674641
