9
Lattice="100.0 0.0 0.0 0.0 100.0 0.0 0.0 0.0 100.0" Properties=species:S:1:pos:R:3 Energy=-97079.69152442848 Energy_pyscf=-97079.52324753517 pbc="F F F"
C       50.75546666      49.47382229      50.48782985
C       49.57877027      50.07962743      49.60714065
O       51.39112862      50.48870412      51.30585913
H       50.41338896      48.61816662      51.13581939
H       51.65472602      49.12818973      49.82108720
H       49.15381723      49.30575770      49.00267020
H       48.75180309      50.26196423      50.30062730
H       49.99584038      51.04047201      49.08185416
H       50.77844782      51.23532465      51.23666110
