9
Lattice="100.0 0.0 0.0 0.0 100.0 0.0 0.0 0.0 100.0" Properties=species:S:1:pos:R:3 Energy=-97076.7298877008 Energy_pyscf=-97077.86748692431 pbc="F F F"
C       50.35871073      49.57444507      50.42619969
C       49.12570829      50.13367473      49.60665797
O       51.14035588      50.59397123      51.11348204
H       50.01966035      48.79335737      51.04642012
H       50.96482838      49.15236072      49.64563329
H       48.88562547      49.30608645      48.91738732
H       48.14302039      50.40826915      50.20608924
H       49.33230852      51.14244218      49.17187005
H       51.87338203      50.79856118      50.52664023
