9
Lattice="100.0 0.0 0.0 0.0 100.0 0.0 0.0 0.0 100.0" Properties=species:S:1:pos:R:3 Energy=-97073.9577489146 Energy_pyscf=-97073.12832052416 pbc="F F F"
C       50.09491453      49.13683956      50.04898130
C       49.47285031      50.55436892      50.16390550
O       51.40343035      49.24936512      49.70286225
H       49.79720722      48.57624166      50.97082893
H       49.72051864      48.76866984      49.13805456
H       49.77784746      50.96072963      51.17363282
H       49.81122801      51.38307771      49.42307303
H       48.37412254      50.55301108      50.13675146
H       51.57104683      48.69956060      48.96382291
