9
Lattice="100.0 0.0 0.0 0.0 100.0 0.0 0.0 0.0 100.0" Properties=species:S:1:pos:R:3 Energy=-97073.44287309897 Energy_pyscf=-97073.1448411247 pbc="F F F"
C       50.64324724      49.51413951      50.34815981
C       49.38785707      50.08223733      49.54266364
O       51.40347713      50.57421193      51.05794949
H       50.24875531      48.70843940      51.05062526
H       51.38070212      48.94930325      49.64955524
H       48.57130555      50.29850684      50.05169016
H       49.76429048      51.04386493      49.02832041
H       48.96762742      49.34048772      48.81181169
H       50.76902304      51.25293840      51.16780901
