9
Lattice="100.0 0.0 0.0 0.0 100.0 0.0 0.0 0.0 100.0" Properties=species:S:1:pos:R:3 Energy=-97073.44287309897 Energy_pyscf=-97072.45750893567 pbc="F F F"
C       50.04955269      49.34852390      49.86001091
C       49.35438611      50.77402837      49.83722410
O       51.49985588      49.36653066      49.51355689
H       49.86582830      48.76317527      50.66601651
H       49.59397763      48.59673426      49.05302088
H       48.28681500      50.61851959      49.89138299
H       49.52649482      51.29563715      50.89132418
H       49.75598603      51.40969935      49.04076912
H       51.85931656      49.81191132      50.25955172
