9
Lattice="100.0 0.0 0.0 0.0 100.0 0.0 0.0 0.0 100.0" Properties=species:S:1:pos:R:3 Energy=-97076.81986325154 pbc="F F F" Energy_pyscf=-97074.03167738284
C       49.96939881      49.41683227      50.02636071
C       48.70201540      50.14264709      49.98091891
O       51.14572643      50.36867288      49.99181422
H       50.03133054      48.79841003      50.84055961
H       50.03984351      48.76865518      49.11871820
H       48.76173219      50.91426552      50.85519017
H       48.76825593      50.84008307      49.20535205
H       47.73182581      49.61371798      49.96673926
H       52.00234644      49.93802893      50.00633789

