9
Lattice="100.0 0.0 0.0 0.0 100.0 0.0 0.0 0.0 100.0" Properties=species:S:1:pos:R:3 Energy=-97069.52873249979 Energy_pyscf=-97066.6903639554 pbc="F F F"
C       50.07155842      49.22918310      50.13465297
C       49.54043718      50.57601764      50.14242435
O       51.54086755      49.24774495      49.73792506
H       49.84417513      48.58026380      50.95611600
H       49.55416226      48.61950819      49.18521111
H       49.59795294      50.94216971      51.14343243
H       49.93936179      51.41393949      49.46791157
H       48.40842987      50.49176938      50.15357715
H       51.53050329      48.76659035      48.85356434
