12
Lattice="100.0 0.0 0.0 0.0 100.0 0.0 0.0 0.0 100.0" Properties=species:S:1:pos:R:3 Energy=-259803.25559511024 Energy_pyscf=-259803.0909331588 pbc="F F F" Energy_pyscf_og=-259802.95766355513
C       51.37423631      50.28205197      49.94409193
C       51.05132104      48.99257442      50.15909870
N       49.80257465      48.50160189      50.34271258
C       48.65861821      49.31920225      50.14428458
N       49.10160194      50.61844786      50.41643170
C       50.33953820      51.20227103      49.88850290
O       47.52336570      48.79132045      50.02666602
O       50.14522809      52.43311066      49.68134260
H       51.86834341      48.22001386      50.10964458
H       49.40661576      47.51759909      50.56925102
H       48.40568363      51.33276645      50.18085510
H       52.37272192      50.63394538      49.69645587
