12
Lattice="100.0 0.0 0.0 0.0 100.0 0.0 0.0 0.0 100.0" Properties=species:S:1:pos:R:3 Energy=-259796.19672373356 Energy_pyscf=-259795.83919536805 pbc="F F F" Energy_pyscf_og=-259795.9068020564
C       51.25394277      50.23588135      50.07792056
C       51.09288664      48.87728864      49.92001643
N       49.81083744      48.49799840      49.88444411
C       48.66205366      49.26044229      50.05447271
N       48.89653156      50.64659751      50.17726742
C       50.30143537      51.26663997      49.76214025
O       47.64544690      48.62565516      50.08980655
O       50.49820179      52.40767772      49.38731992
H       51.87974662      48.15886424      49.66904920
H       49.35562182      47.61221373      50.26854949
H       48.07172672      51.15688066      49.98747552
H       52.22920891      50.67757909      50.04492638
