12
Lattice="100.0 0.0 0.0 0.0 100.0 0.0 0.0 0.0 100.0" Properties=species:S:1:pos:R:3 Energy=-259809.8701178466 Energy_pyscf=-259810.00074690065 pbc="F F F" Energy_pyscf_og=-259809.56675539058
C       51.43372625      50.21558199      49.74469401
C       51.16800831      48.89496726      49.98207906
N       49.86173932      48.51886632      50.19197628
C       48.58477132      49.22159175      50.06134418
N       48.88148551      50.57330857      49.76281740
C       50.21176522      51.21567674      49.76830799
O       47.46080665      48.81111210      50.21982376
O       50.32660318      52.43074057      49.79112686
H       51.83564345      48.12380476      50.15793752
H       49.74552951      47.41756360      50.35536291
H       47.97303527      51.09535329      49.62893608
H       52.48106574      50.66716165      49.68588402
