12
Lattice="100.0 0.0 0.0 0.0 100.0 0.0 0.0 0.0 100.0" Properties=species:S:1:pos:R:3 Energy=-259814.60788608884 Energy_pyscf=-259814.50462789738 pbc="F F F" Energy_pyscf_og=-259814.30094598947
C       51.33001355      50.28252592      49.96382612
C       51.08108695      48.93589548      49.97692999
N       49.80167070      48.45153509      50.15683790
C       48.67030077      49.23328182      50.09751585
N       48.98275381      50.63329528      50.34454098
C       50.26047825      51.25427090      50.00277703
O       47.52496095      48.71120577      50.00483100
O       50.34530875      52.42916733      49.57696764
H       51.91679344      48.19635558      49.92274245
H       49.62779851      47.46048547      49.77045703
H       48.12454525      51.20966284      50.36041083
H       52.29457626      50.47289207      49.58183630
