12
Lattice="100.0 0.0 0.0 0.0 100.0 0.0 0.0 0.0 100.0" Properties=species:S:1:pos:R:3 Energy=-259815.03437832205 Energy_pyscf=-259812.1766707081 pbc="F F F" Energy_pyscf_og=-259814.72443875036
C       51.36584362      50.22357812      49.86435021
C       51.10026306      48.97737160      50.25642248
N       49.83985129      48.44222154      50.34470554
C       48.65887270      49.25789088      50.13116096
N       48.94275373      50.54199811      49.93660043
C       50.27543309      51.26142152      50.01597105
O       47.51782876      48.93533460      50.30951205
O       50.31330693      52.48032817      50.05815913
H       51.99119831      48.33431372      50.25407802
H       49.64203031      47.41361513      50.45560676
H       48.07542144      51.11673630      50.11084793
H       52.43720083      50.47270083      49.65608408
