12
Lattice="100.0 0.0 0.0 0.0 100.0 0.0 0.0 0.0 100.0" Properties=species:S:1:pos:R:3 Energy=-259805.38712083793 Energy_pyscf=-259799.90838344477 pbc="F F F" Energy_pyscf_og=-259805.07902617293
C       51.33821572      50.30977475      49.95396647
C       51.17693423      49.02590762      50.31086441
N       49.87622665      48.44223160      50.40584545
C       48.72004825      49.29250166      50.19824323
N       48.99026419      50.61059443      50.27518645
C       50.27633076      51.29009395      50.09976345
O       47.64611379      48.72293982      50.18081225
O       50.52963208      52.44177067      50.04259702
H       51.96535988      48.46803438      49.76183960
H       49.69885048      47.38382075      50.37095203
H       48.12180208      51.20996112      50.23173798
H       52.22634797      50.58793088      49.43337631
