12
Lattice="100.0 0.0 0.0 0.0 100.0 0.0 0.0 0.0 100.0" Properties=species:S:1:pos:R:3 Energy=-259814.279119902 Energy_pyscf=-259813.76956823823 pbc="F F F" Energy_pyscf_og=-259813.97015132767
C       51.33457122      50.24869823      49.77599088
C       51.08447952      48.91303924      49.89683170
N       49.80781996      48.39495577      49.68237268
C       48.66594615      49.21653070      49.89097559
N       48.90960904      50.54636867      49.83599415
C       50.20879085      51.19343860      49.78656328
O       47.52890386      48.79403630      50.13014419
O       50.32226563      52.42720864      49.67823541
H       51.81226077      48.24598651      50.39130711
H       49.62379682      47.38161921      49.84338152
H       48.05884915      51.23995480      49.68626176
H       52.27873043      50.61098454      49.87328549
