12
Lattice="100.0 0.0 0.0 0.0 100.0 0.0 0.0 0.0 100.0" Properties=species:S:1:pos:R:3 Energy=-259814.03233812226 Energy_pyscf=-259808.9826894601 pbc="F F F" Energy_pyscf_og=-259813.7219574236
C       51.31848823      50.29287884      49.92083073
C       51.05779450      49.00045778      50.06892743
N       49.82459311      48.41437629      50.09027865
C       48.63347555      49.16338529      50.24186184
N       48.97618892      50.55409590      50.24777295
C       50.23701051      51.19992665      49.86933158
O       47.49961295      48.76704879      50.18553724
O       50.44941791      52.35122288      49.77977867
H       51.78931564      48.20678162      50.06052082
H       49.81175590      47.44522682      49.99932500
H       48.16484754      51.22370145      50.03939994
H       52.31633925      50.64534330      50.18480388
