12
Lattice="100.0 0.0 0.0 0.0 100.0 0.0 0.0 0.0 100.0" Properties=species:S:1:pos:R:3 Energy=-259812.24027132464 Energy_pyscf=-259816.31278672928 pbc="F F F" Energy_pyscf_og=-259811.9277542974
C       51.39713240      50.26542385      49.83306849
C       51.15312525      48.94774277      50.13014345
N       49.84299191      48.53058775      50.43228783
C       48.66660251      49.30900226      50.16875346
N       48.97803048      50.64296867      50.15418520
C       50.23122539      51.22464989      49.88470618
O       47.47304242      48.89999797      50.09871946
O       50.24706541      52.47803627      49.88883136
H       51.96728303      48.10731185      50.29773664
H       49.55424678      47.56511434      50.44004026
H       48.18496484      51.34622991      50.22997405
H       52.40767993      50.52439384      49.59317966
