12
Lattice="100.0 0.0 0.0 0.0 100.0 0.0 0.0 0.0 100.0" Properties=species:S:1:pos:R:3 Energy=-259807.70902869807 Energy_pyscf=-259807.39529827598 pbc="F F F" Energy_pyscf_og=-259807.3973235954
C       51.43966241      50.44813201      50.00382285
C       51.26942272      49.14428843      50.13913765
N       50.00438524      48.54098673      50.09581255
C       48.74694238      49.36224451      50.11742588
N       49.14677641      50.63906616      49.77211101
C       50.36962849      51.38938231      49.86283118
O       47.54469262      48.96132539      50.34373903
O       50.47655907      52.56177978      49.88180038
H       52.00045508      48.42723927      50.44994865
H       50.08317575      47.55764709      50.18072202
H       48.36079938      51.29164457      49.74965023
H       52.44110873      50.89039184      49.93882363
