12
Lattice="100.0 0.0 0.0 0.0 100.0 0.0 0.0 0.0 100.0" Properties=species:S:1:pos:R:3 Energy=-259811.4189466163 Energy_pyscf=-259811.11618741055 pbc="F F F" Energy_pyscf_og=-259811.11053785967
C       51.38209749      50.35628285      49.94812496
C       51.04808727      48.98761973      50.11329539
N       49.77456667      48.47784017      50.20459409
C       48.65779715      49.27902070      50.13080491
N       49.04113631      50.61951586      50.03376100
C       50.26477822      51.25785581      49.91713728
O       47.52352252      48.97061475      50.42684314
O       50.37802667      52.46491908      50.02150638
H       51.82801385      48.21228958      49.91646008
H       49.53637065      47.40241582      49.91919527
H       48.19579389      51.19095637      50.03833537
H       52.38564459      50.66063446      49.76468534
