12
Lattice="100.0 0.0 0.0 0.0 100.0 0.0 0.0 0.0 100.0" Properties=species:S:1:pos:R:3 Energy=-259812.23377584355 Energy_pyscf=-259810.37930628096 pbc="F F F" Energy_pyscf_og=-259811.91578317314
C       51.38238462      50.26846545      49.82990357
C       51.04042744      48.97257941      49.90258494
N       49.77142999      48.48774349      49.82066723
C       48.59808767      49.18486146      49.99797103
N       48.89158606      50.56165871      49.61937524
C       50.20728862      51.21820900      49.73781120
O       47.55465395      48.66218230      50.30277465
O       50.34409100      52.41801652      49.56385026
H       51.71401036      48.22526604      50.12101688
H       49.63888341      47.51938033      49.71788393
H       48.01721242      51.10184949      49.68962409
H       52.46335277      50.56621921      50.13506682
