12
Lattice="100.0 0.0 0.0 0.0 100.0 0.0 0.0 0.0 100.0" Properties=species:S:1:pos:R:3 Energy=-259801.78082726148 Energy_pyscf=-259796.28099792797 pbc="F F F" Energy_pyscf_og=-259801.45967672305
C       51.34479770      50.35009232      50.08804663
C       51.10094324      48.92023937      50.05418801
N       49.79219973      48.59527075      50.48924697
C       48.73347659      49.30280744      50.13831612
N       48.93047175      50.61323907      49.69535174
C       50.20199815      51.24472834      50.17370968
O       47.55313627      48.90330228      50.44215737
O       50.24076389      52.44680655      50.38256458
H       51.93317722      48.20666676      50.09133116
H       49.51240746      47.58868797      50.61434928
H       48.17786193      51.15958059      49.36679834
H       52.37734790      50.61838705      50.09101081
