12
Lattice="100.0 0.0 0.0 0.0 100.0 0.0 0.0 0.0 100.0" Properties=species:S:1:pos:R:3 Energy=-259813.74142901218 Energy_pyscf=-259813.41903763262 pbc="F F F" Energy_pyscf_og=-259813.43709646084
C       51.35893670      50.27961784      50.00923973
C       51.15194223      48.93607272      49.97447572
N       49.87814489      48.42558249      49.87064900
C       48.74044520      49.31038779      49.94131905
N       49.06514528      50.61526491      49.73669834
C       50.27887979      51.27417761      49.75501932
O       47.61218656      48.90291956      50.22816572
O       50.38740399      52.49307961      49.64885289
H       52.01589491      48.28995043      50.04643703
H       49.63783860      47.36416201      50.06385211
H       48.03926003      51.07882781      49.82556736
H       52.28605133      50.72429641      50.32450165
