12
Lattice="100.0 0.0 0.0 0.0 100.0 0.0 0.0 0.0 100.0" Properties=species:S:1:pos:R:3 Energy=-259814.30001768997 Energy_pyscf=-259813.57027673954 pbc="F F F" Energy_pyscf_og=-259813.98336798052
C       51.28292241      50.21406379      49.98597332
C       50.98132103      48.93107410      49.93258272
N       49.80701910      48.37610403      50.16798138
C       48.61227329      49.21091983      50.04408669
N       48.91030514      50.59883245      49.86721444
C       50.27902329      51.28215196      49.86410618
O       47.49632770      48.79554341      50.18123244
O       50.36060028      52.48659630      49.89011697
H       51.72384916      48.21325186      49.83098761
H       49.60325250      47.38960610      50.11189520
H       48.15719218      51.22299331      49.83674057
H       52.34314401      50.47434158      49.83506385
