12
Lattice="100.0 0.0 0.0 0.0 100.0 0.0 0.0 0.0 100.0" Properties=species:S:1:pos:R:3 Energy=-259802.5883693875 Energy_pyscf=-259802.27124815035 pbc="F F F" Energy_pyscf_og=-259802.28156198843
C       51.39658825      50.18586886      50.03760146
C       51.05291046      48.87026386      50.14535983
N       49.75259979      48.45733580      50.35009201
C       48.60925127      49.33985467      50.13585781
N       48.80922318      50.54991355      49.51340489
C       50.28915538      51.10182495      49.87683210
O       47.49611085      49.05464528      50.55595407
O       50.28499453      52.27021050      50.11169325
H       51.83601582      48.11356441      50.23143195
H       49.48701900      47.43499617      50.46765550
H       48.03652356      51.25700029      49.54108232
H       52.35810075      50.57775387      50.02766274
