12
Lattice="100.0 0.0 0.0 0.0 100.0 0.0 0.0 0.0 100.0" Properties=species:S:1:pos:R:3 Energy=-259813.1087681039 Energy_pyscf=-259814.0280511626 pbc="F F F" Energy_pyscf_og=-259812.79229737606
C       51.38575444      50.34295688      49.78472994
C       51.13484513      48.99702934      50.09991177
N       49.91876760      48.42949625      50.28065471
C       48.71575637      49.21908378      50.02705329
N       49.00029080      50.59811959      50.08341099
C       50.32515281      51.26247854      49.90900896
O       47.59204057      48.68748885      50.03214461
O       50.47321030      52.49126000      49.77641031
H       51.90773753      48.20883632      50.17906293
H       49.68787338      47.53082949      50.56873203
H       48.05649845      51.07151078      49.98517376
H       52.37031803      50.80240642      49.56156282
