12
Lattice="100.0 0.0 0.0 0.0 100.0 0.0 0.0 0.0 100.0" Properties=species:S:1:pos:R:3 Energy=-259820.96363372105 Energy_pyscf=-259821.49195578776 pbc="F F F" Energy_pyscf_og=-259820.65143553665
C       51.33545332      50.23364811      49.86534485
C       51.08680982      48.92742318      49.92138771
N       49.81063098      48.47985281      50.02058151
C       48.63234732      49.22390896      50.14222090
N       48.99399536      50.61560686      50.23736807
C       50.18325313      51.21635852      49.85659407
O       47.48415668      48.76249757      50.00584872
O       50.29178281      52.42475722      49.71586287
H       51.87839559      48.16993639      49.96920453
H       49.70562972      47.44855517      49.89137070
H       48.19943425      51.24503396      50.41862414
H       52.37878366      50.51560636      49.67242320
