12
Lattice="100.0 0.0 0.0 0.0 100.0 0.0 0.0 0.0 100.0" Properties=species:S:1:pos:R:3 Energy=-259819.26745449821 Energy_pyscf=-259818.3062235527 pbc="F F F" Energy_pyscf_og=-259818.95495359358
C       51.37436910      50.20355912      49.93678689
C       51.13323677      48.90950487      49.92733804
N       49.82002271      48.45476717      50.00586978
C       48.65536817      49.25405022      50.04245155
N       48.95816389      50.56270769      49.86605227
C       50.21721162      51.18692628      49.83631501
O       47.55071696      48.77125239      50.32254174
O       50.32817649      52.43527170      49.86829469
H       51.83612973      48.04709209      49.74029500
H       49.78595126      47.38337205      50.04609357
H       48.18908701      51.18850028      49.87168288
H       52.31770344      50.63746789      49.84767314
