12
Lattice="100.0 0.0 0.0 0.0 100.0 0.0 0.0 0.0 100.0" Properties=species:S:1:pos:R:3 Energy=-259807.91143704834 Energy_pyscf=-259804.58667834604 pbc="F F F" Energy_pyscf_og=-259807.6024848194
C       51.36117869      50.27261325      50.03056106
C       51.17047704      48.93254243      49.86129771
N       49.81732620      48.43455688      50.09969657
C       48.75600390      49.24055344      50.05092330
N       48.88179404      50.60683032      49.93778915
C       50.23672506      51.25441228      49.94747531
O       47.51976552      48.90539544      50.12482367
O       50.27084289      52.43505013      49.92469734
H       51.94484591      48.22964095      49.76276573
H       49.69347819      47.47816784      50.42751610
H       48.03556221      51.10719825      50.15238442
H       52.38203053      50.71129942      50.06539438
