12
Lattice="100.0 0.0 0.0 0.0 100.0 0.0 0.0 0.0 100.0" Properties=species:S:1:pos:R:3 Energy=-259805.87651008015 Energy_pyscf=-259804.2939570765 pbc="F F F" Energy_pyscf_og=-259805.558945073
C       51.39502946      50.24389539      49.81356569
C       51.22054982      48.90013620      50.03375542
N       49.83536113      48.39040628      50.16304218
C       48.63568553      49.17753655      50.00636949
N       48.93795435      50.51796969      49.46597048
C       50.18709910      51.19751756      49.84509870
O       47.52227496      49.03241318      50.32338259
O       50.17964019      52.37073677      50.08105612
H       52.00687822      48.06497839      50.07123752
H       49.60426469      47.46022894      50.53341664
H       48.12680802      51.09582887      49.51200334
H       52.36765338      50.72175536      49.53067896
