12
Lattice="100.0 0.0 0.0 0.0 100.0 0.0 0.0 0.0 100.0" Properties=species:S:1:pos:R:3 Energy=-259806.03556881155 Energy_pyscf=-259803.69937839164 pbc="F F F" Energy_pyscf_og=-259805.72881785646
C       51.35607346      50.21953499      50.15819661
C       51.07961295      48.92463169      49.92994918
N       49.73344309      48.45868470      49.96879441
C       48.65876682      49.22332930      50.20167633
N       48.92623740      50.55226081      49.98503934
C       50.24148303      51.15520457      49.83708199
O       47.48088532      48.77301794      50.11312153
O       50.26387681      52.38992414      49.71963131
H       51.87012937      48.13719107      49.82738575
H       49.58292071      47.58783753      50.50066588
H       48.22965204      51.25652764      50.13688836
H       52.40451226      50.62405529      50.11928080
