12
Lattice="100.0 0.0 0.0 0.0 100.0 0.0 0.0 0.0 100.0" Properties=species:S:1:pos:R:3 Energy=-259803.92622462008 Energy_pyscf=-259801.5937123505 pbc="F F F" Energy_pyscf_og=-259803.61423101404
C       51.24417143      50.31603622      50.17425932
C       51.06519784      48.94891173      50.28446898
N       49.81944260      48.51728808      50.44006479
C       48.65439314      49.31491632      50.18301641
N       48.99235535      50.64953095      49.73932878
C       50.16074502      51.29516830      50.09783893
O       47.52818337      48.99024733      50.63909332
O       50.34237557      52.46570063      50.33981423
H       51.95475054      48.31515090      50.14609211
H       49.61021638      47.52976385      50.26867433
H       48.22296613      51.07717686      49.27867170
H       52.31375856      50.56541434      50.01046281
