12
Lattice="100.0 0.0 0.0 0.0 100.0 0.0 0.0 0.0 100.0" Properties=species:S:1:pos:R:3 Energy=-259815.34856627593 Energy_pyscf=-259815.32829222534 pbc="F F F" Energy_pyscf_og=-259815.04591065666
C       51.37453468      50.28885247      49.98217550
C       51.14105253      48.97656694      50.08292526
N       49.83214716      48.48889231      49.97975381
C       48.72279764      49.24889359      50.06772496
N       48.97355087      50.55929776      49.77169317
C       50.32916284      51.24083630      49.79974847
O       47.61448341      48.81161694      50.09089599
O       50.41494479      52.44170923      49.67255783
H       51.97151045      48.28147964      50.15550095
H       49.65332247      47.45885797      49.94733899
H       48.03402146      51.11077589      49.87463971
H       52.39543048      50.77006129      50.17830713
