12
Lattice="100.0 0.0 0.0 0.0 100.0 0.0 0.0 0.0 100.0" Properties=species:S:1:pos:R:3 Energy=-259799.99160906696 Energy_pyscf=-259792.57264301513 pbc="F F F" Energy_pyscf_og=-259799.67690158458
C       51.25403082      50.33572738      49.89726601
C       51.04303310      48.95510962      49.95588554
N       49.79914188      48.38071270      49.66556997
C       48.69917771      49.19914622      49.95989441
N       48.93116060      50.51277713      49.61003188
C       50.17033886      51.25231931      49.87600997
O       47.61339599      48.88334783      50.47474908
O       50.30733547      52.36326410      49.53878407
H       51.69179169      48.11470390      50.39623212
H       49.66860667      47.40173932      49.51326714
H       48.11937861      51.15851930      49.63141197
H       52.32793317      50.66606285      49.95139084
