12
Lattice="100.0 0.0 0.0 0.0 100.0 0.0 0.0 0.0 100.0" Properties=species:S:1:pos:R:3 Energy=-259820.55463178142 Energy_pyscf=-259819.82932587445 pbc="F F F" Energy_pyscf_og=-259820.24750732188
C       51.48880377      50.38474555      49.98019407
C       51.20163526      49.01252853      50.13328463
N       49.97312668      48.54666168      50.08721805
C       48.78490226      49.34686956      50.05126213
N       49.11151876      50.66349479      50.00585294
C       50.36084097      51.32888870      49.86470761
O       47.68183980      48.80546700      50.16976880
O       50.33047103      52.57900398      49.64407898
H       52.07523314      48.33477774      50.32309470
H       49.91882603      47.53952227      50.21179422
H       48.30866845      51.28626902      50.09433712
H       52.46001607      50.83426243      49.71966048
