12
Lattice="100.0 0.0 0.0 0.0 100.0 0.0 0.0 0.0 100.0" Properties=species:S:1:pos:R:3 Energy=-259814.77118506175 Energy_pyscf=-259814.4914050354 pbc="F F F" Energy_pyscf_og=-259814.4644524357
C       51.27552535      50.24720634      49.93344768
C       51.00201843      48.97238570      49.97856571
N       49.74331137      48.35344683      50.08242733
C       48.68886441      49.25888027      50.04849476
N       48.98361209      50.64425631      49.93127454
C       50.21471662      51.21997227      49.86124311
O       47.58803913      48.86860921      50.18430841
O       50.30082440      52.44963406      49.90025619
H       51.78305527      48.21365286      49.88505538
H       49.49345226      47.32680241      50.11157208
H       48.12806676      51.18488184      49.83879794
H       52.35038906      50.46989600      49.83566767
