12
Lattice="100.0 0.0 0.0 0.0 100.0 0.0 0.0 0.0 100.0" Properties=species:S:1:pos:R:3 Energy=-259806.03556881155 Energy_pyscf=-259803.6972971013 pbc="F F F" Energy_pyscf_og=-259805.72881785696
C       51.35628898      50.21863815      50.16047295
C       51.07966118      48.92341411      49.93426419
N       49.73341336      48.45776185      49.97364510
C       48.65880320      49.22297726      50.20492670
N       48.92654317      50.55149344      49.98602510
C       50.24194303      51.15398078      49.83755477
O       47.48086900      48.77269829      50.11683317
O       50.26458882      52.38850268      49.71816026
H       51.87006002      48.13565803      49.83317534
H       49.58263283      47.58786411      50.50699983
H       48.23002031      51.25612464      50.13644337
H       52.40481489      50.62288813      50.12117521
