12
Lattice="100.0 0.0 0.0 0.0 100.0 0.0 0.0 0.0 100.0" Properties=species:S:1:pos:R:3 Energy=-259809.0127390286 Energy_pyscf=-259805.47111586033 pbc="F F F" Energy_pyscf_og=-259808.6991412965
C       51.30355672      50.34009398      49.92458648
C       50.98527434      48.98418174      50.06862939
N       49.74755826      48.44434676      50.07991285
C       48.51981942      49.30320284      50.12115265
N       48.98685130      50.57535566      49.91181515
C       50.30919626      51.30188247      49.96936700
O       47.40805433      48.88991255      50.19946357
O       50.31363396      52.51960978      49.69275266
H       51.82142013      48.39825726      50.29691353
H       49.53857478      47.51143509      50.31650232
H       48.27892922      51.20304444      50.12026463
H       52.33409800      50.65121663      49.73384245
