12
Lattice="100.0 0.0 0.0 0.0 100.0 0.0 0.0 0.0 100.0" Properties=species:S:1:pos:R:3 Energy=-259821.69684992018 Energy_pyscf=-259821.42455622394 pbc="F F F" Energy_pyscf_og=-259821.3821843523
C       51.49488117      50.46315321      50.10803961
C       51.26860771      49.12025510      50.02933408
N       50.06332508      48.60334692      50.08680363
C       48.82765878      49.37802800      50.09049121
N       49.06801957      50.73640116      50.14748497
C       50.38952750      51.36012547      50.00975695
O       47.72204132      48.83875538      50.13361678
O       50.34512948      52.52640091      49.68516035
H       52.08695363      48.41010597      50.09156649
H       49.82817656      47.64090531      50.15300314
H       48.32832929      51.41229626      50.04477858
H       52.50455462      50.81663826      49.86897648
