12
Lattice="100.0 0.0 0.0 0.0 100.0 0.0 0.0 0.0 100.0" Properties=species:S:1:pos:R:3 Energy=-259823.25112737904 Energy_pyscf=-259823.0642783303 pbc="F F F" Energy_pyscf_og=-259822.94260577564
C       51.33611415      50.26097192      49.85435272
C       51.05531978      48.92861511      49.96615431
N       49.81074863      48.44981033      50.07768366
C       48.67267500      49.26533246      50.09086168
N       49.00703209      50.57696347      50.18086501
C       50.25284874      51.20908297      49.96875961
O       47.56930599      48.78783979      50.01771823
O       50.33358279      52.40722776      49.80705676
H       51.86504670      48.20906079      49.96729251
H       49.53962362      47.48778930      49.93598501
H       48.16062827      51.08541785      50.35025872
H       52.39045448      50.58517884      49.53854057
