12
Lattice="100.0 0.0 0.0 0.0 100.0 0.0 0.0 0.0 100.0" Properties=species:S:1:pos:R:3 Energy=-259810.62749653272 Energy_pyscf=-259807.8350829458 pbc="F F F" Energy_pyscf_og=-259810.32467664932
C       51.50601847      50.33342198      49.87269380
C       51.23519133      48.94333674      50.09716882
N       49.98615694      48.52886863      50.10916915
C       48.81732338      49.31266393      50.07601630
N       49.11801735      50.70070460      50.18745578
C       50.38352566      51.44087820      49.91091109
O       47.72858145      48.81137918      50.13115228
O       50.34599969      52.62625870      49.60702216
H       52.06873918      48.29283097      50.30289823
H       49.82649394      47.53771226      50.24124310
H       48.22883884      51.24513998      49.98243709
H       52.43084254      50.91312261      49.76801815
