12
Lattice="100.0 0.0 0.0 0.0 100.0 0.0 0.0 0.0 100.0" Properties=species:S:1:pos:R:3 Energy=-259815.82970488872 Energy_pyscf=-259815.05372638165 pbc="F F F" Energy_pyscf_og=-259815.51132845474
C       51.36884498      50.33675884      49.90887926
C       51.11046880      48.94667012      49.95113831
N       49.81891646      48.44963206      50.17020172
C       48.65827764      49.24031125      50.05117584
N       48.92717390      50.61601144      50.09763769
C       50.25544846      51.25715399      49.88568139
O       47.51454496      48.73781493      50.06161691
O       50.27287977      52.48134772      49.84843626
H       51.81473968      48.13287297      49.89926124
H       49.67161190      47.43558137      49.92250543
H       48.17800538      51.19142631      50.36327566
H       52.36931442      50.43504221      49.57959220
