12
Lattice="100.0 0.0 0.0 0.0 100.0 0.0 0.0 0.0 100.0" Properties=species:S:1:pos:R:3 Energy=-259815.8150391558 Energy_pyscf=-259816.0463844734 pbc="F F F" Energy_pyscf_og=-259815.4991327252
C       51.27913474      50.23973675      49.93677923
C       51.08032718      48.87572106      50.10602779
N       49.82526223      48.41850553      50.05818036
C       48.67526231      49.25659434      50.15563132
N       48.93008652      50.59456626      50.12567907
C       50.21167176      51.27039616      49.89696042
O       47.52967195      48.84243783      50.11127478
O       50.38698338      52.45872908      49.83468871
H       51.92551948      48.10129093      50.17016163
H       49.79759090      47.46378593      50.07697355
H       48.04523730      51.16652878      50.18329477
H       52.36563067      50.60336891      50.02192104
