12
Lattice="100.0 0.0 0.0 0.0 100.0 0.0 0.0 0.0 100.0" Properties=species:S:1:pos:R:3 Energy=-259806.20070755063 Energy_pyscf=-259805.72854247407 pbc="F F F" Energy_pyscf_og=-259805.8671155394
C       51.34284930      50.20631963      49.72701627
C       51.05556086      48.94213163      49.98680051
N       49.80319270      48.35451214      50.20306625
C       48.63674932      49.15106907      50.13508087
N       48.96109133      50.59408354      50.28558383
C       50.17225055      51.19905995      49.90135834
O       47.48301869      48.88501908      49.76141310
O       50.32695044      52.37888457      49.68057326
H       51.84736935      48.21456414      49.94416413
H       49.74720236      47.45807025      49.96761202
H       48.18943977      51.16223358      50.56035698
H       52.38064538      50.52426404      49.60558592
