12
Lattice="100.0 0.0 0.0 0.0 100.0 0.0 0.0 0.0 100.0" Properties=species:S:1:pos:R:3 Energy=-259805.97071151563 Energy_pyscf=-259803.92691120438 pbc="F F F" Energy_pyscf_og=-259805.65469062453
C       51.45357855      50.35009732      50.11423652
C       51.13303972      49.04051769      50.00578740
N       49.76293410      48.51843493      50.09402000
C       48.63540413      49.34320005      50.26159140
N       48.91701378      50.73382731      50.17801071
C       50.21879103      51.32514050      49.89790592
O       47.52793228      48.85503901      50.19761441
O       50.44534838      52.53743375      49.73398076
H       51.93077617      48.27152984      49.85593709
H       49.78952702      47.46575742      50.01691677
H       47.93599727      51.15840637      50.09776072
H       52.44756516      50.79067027      50.33557581
