12
Lattice="100.0 0.0 0.0 0.0 100.0 0.0 0.0 0.0 100.0" Properties=species:S:1:pos:R:3 Energy=-259819.67550586959 Energy_pyscf=-259819.65950478642 pbc="F F F" Energy_pyscf_og=-259819.35985665725
C       51.32260544      50.39250238      50.12911400
C       51.07339798      49.09438626      49.98660768
N       49.84058094      48.50220154      50.09484489
C       48.66406738      49.29606703      50.13003994
N       48.96349709      50.66381250      50.36682391
C       50.24015196      51.31747547      50.07711473
O       47.55010620      48.82006125      49.96034343
O       50.36581758      52.50188352      49.70612385
H       51.85677762      48.30407111      49.83271061
H       49.73561789      47.49797422      50.24776058
H       48.16802602      51.23339429      50.09288338
H       52.36565752      50.79073481      50.13930893
