12
Lattice="100.0 0.0 0.0 0.0 100.0 0.0 0.0 0.0 100.0" Properties=species:S:1:pos:R:3 Energy=-259823.6373570815 Energy_pyscf=-259823.13539985608 pbc="F F F" Energy_pyscf_og=-259823.3299578483
C       51.40316744      50.42193359      49.94663584
C       51.30312562      49.05819649      50.10267222
N       50.00760318      48.52348691      50.12124326
C       48.83676307      49.26270980      50.11198120
N       49.09723842      50.65792602      50.10118700
C       50.34097507      51.36642835      49.85155071
O       47.69907338      48.82572773      50.11538428
O       50.46059922      52.56189675      49.63603937
H       52.15970806      48.35830128      50.24344490
H       49.71455597      47.52631766      50.26085715
H       48.26679445      51.24547570      50.03026793
H       52.40898019      50.84953611      49.78129661
