12
Lattice="100.0 0.0 0.0 0.0 100.0 0.0 0.0 0.0 100.0" Properties=species:S:1:pos:R:3 Energy=-259812.1981699846 Energy_pyscf=-259810.89114943208 pbc="F F F" Energy_pyscf_og=-259811.89455907934
C       51.32615953      50.37330931      49.80520514
C       51.13840599      49.01965790      50.03924192
N       49.90044013      48.49107571      50.20130118
C       48.76323527      49.20827435      50.27894106
N       49.00421578      50.54190834      50.25202547
C       50.28616982      51.26667717      50.07616056
O       47.57707991      48.75880305      50.23619262
O       50.40060394      52.46443580      50.02765196
H       51.92305385      48.30801795      50.19588929
H       49.73675248      47.49291707      50.29825569
H       48.11979761      51.22982171      50.40038534
H       52.35742610      50.58442809      49.49682706
