12
Lattice="100.0 0.0 0.0 0.0 100.0 0.0 0.0 0.0 100.0" Properties=species:S:1:pos:R:3 Energy=-259815.14928677637 Energy_pyscf=-259814.66282479267 pbc="F F F" Energy_pyscf_og=-259814.8509128455
C       51.42084808      50.35438131      49.80671972
C       51.24688669      49.04044961      50.09008299
N       50.02074490      48.52134605      49.98673401
C       48.79234527      49.26880058      50.09253020
N       49.10393459      50.68455192      50.09150426
C       50.39029515      51.34829915      49.86585810
O       47.70960781      48.73543011      50.21316315
O       50.50894523      52.52453571      49.71841569
H       52.00037058      48.32982941      50.35208971
H       49.86665471      47.52520413      50.30809973
H       48.27118274      51.35605902      49.98176341
H       52.35313231      50.94844112      49.78471446
