12
Lattice="100.0 0.0 0.0 0.0 100.0 0.0 0.0 0.0 100.0" Properties=species:S:1:pos:R:3 Energy=-259813.80587668496 Energy_pyscf=-259813.6204235843 pbc="F F F" Energy_pyscf_og=-259813.49360927418
C       51.39711312      50.21740894      50.03716395
C       51.11434128      48.91309760      49.91636838
N       49.80370012      48.46616208      49.94854129
C       48.66313696      49.20700650      50.21304071
N       48.94049375      50.59028523      50.16575227
C       50.25014137      51.15609643      49.89870582
O       47.51411324      48.71725887      50.13413741
O       50.29882744      52.34755593      49.66047096
H       51.83928688      48.14934937      49.82427658
H       49.65877312      47.45043018      49.88798965
H       48.06243801      51.28196455      50.35008508
H       52.45226318      50.58072811      49.71064451
