12
Lattice="100.0 0.0 0.0 0.0 100.0 0.0 0.0 0.0 100.0" Properties=species:S:1:pos:R:3 Energy=-259822.14306379348 Energy_pyscf=-259822.73407433103 pbc="F F F" Energy_pyscf_og=-259821.8314312451
C       51.31315143      50.24945055      49.82980689
C       51.10809175      48.93546394      50.16994481
N       49.82589770      48.51625578      50.35536039
C       48.67810864      49.34289474      50.20314247
N       49.02427717      50.66540250      50.11974062
C       50.28293857      51.22239825      49.94726442
O       47.55752759      48.84130896      50.06967542
O       50.28330679      52.46441957      49.85470772
H       51.89443546      48.13891628      50.28561135
H       49.57548687      47.55752613      50.47327436
H       48.24089098      51.31609070      50.24282881
H       52.31396311      50.54664058      49.59784710
