12
Lattice="100.0 0.0 0.0 0.0 100.0 0.0 0.0 0.0 100.0" Properties=species:S:1:pos:R:3 Energy=-259812.8014306697 Energy_pyscf=-259811.79655470807 pbc="F F F" Energy_pyscf_og=-259812.47371180783
C       51.42862402      50.36485982      49.95157877
C       51.20190481      49.03332108      50.09533925
N       49.92975366      48.45513349      49.91156603
C       48.78896037      49.30994384      50.06682072
N       49.04012873      50.69676452      50.05474321
C       50.32149870      51.30229216      49.91787176
O       47.68273954      48.82377497      50.21374767
O       50.46893833      52.51862226      49.64102485
H       52.15295279      48.35138447      50.27423742
H       49.93315863      47.55442339      50.33984405
H       48.34041337      51.33090519      50.01084058
H       52.40315025      50.91936301      49.81695701
