12
Lattice="100.0 0.0 0.0 0.0 100.0 0.0 0.0 0.0 100.0" Properties=species:S:1:pos:R:3 Energy=-259816.87127188835 Energy_pyscf=-259815.2032082557 pbc="F F F" Energy_pyscf_og=-259816.5486129747
C       51.50604333      50.39354564      49.82031752
C       51.27584872      49.05027256      50.02770702
N       50.03466350      48.45454670      49.98383682
C       48.79499352      49.24796178      50.05129709
N       49.11104774      50.64509765      50.02454830
C       50.32333844      51.32844864      49.82694212
O       47.63733237      48.93015928      50.27212436
O       50.40751545      52.51878182      49.65064476
H       51.96894671      48.30660160      50.30834497
H       49.94349228      47.55621883      50.30637046
H       48.28277395      51.28299488      50.04586938
H       52.44088770      50.95585511      49.93395177
