12
Lattice="100.0 0.0 0.0 0.0 100.0 0.0 0.0 0.0 100.0" Properties=species:S:1:pos:R:3 Energy=-259814.4562386585 Energy_pyscf=-259815.28470219625 pbc="F F F" Energy_pyscf_og=-259814.1409668456
C       51.33547852      50.25716595      49.82519120
C       51.15774463      48.93648557      50.06069335
N       49.82570058      48.42391986      49.97375676
C       48.66602718      49.29605584      50.07135825
N       48.95664783      50.60701471      50.20029620
C       50.22387927      51.14683183      49.90207293
O       47.55992891      48.85523418      50.04838311
O       50.34167057      52.37029454      49.75405203
H       51.99574674      48.31320392      50.24065724
H       49.41811782      47.43793864      49.99473033
H       48.20728284      51.24360853      50.21708624
H       52.34436765      50.78268214      49.90031834
