12
Lattice="100.0 0.0 0.0 0.0 100.0 0.0 0.0 0.0 100.0" Properties=species:S:1:pos:R:3 Energy=-259815.19997193269 Energy_pyscf=-259813.34221963212 pbc="F F F" Energy_pyscf_og=-259814.88549225137
C       51.30634894      50.22596366      50.01751298
C       51.04188002      48.88316581      49.98415603
N       49.76571997      48.41304939      50.26201454
C       48.68584181      49.24603665      50.23382413
N       48.94400264      50.55469472      50.04443520
C       50.19891917      51.18673330      49.99967810
O       47.54424071      48.75570665      50.23835608
O       50.34260257      52.36398609      49.82712506
H       51.88529937      48.25269547      49.86373784
H       49.64252230      47.59415356      49.77117803
H       48.15470049      51.20651331      50.16641990
H       52.31102236      50.53991219      49.63626179
