12
Lattice="100.0 0.0 0.0 0.0 100.0 0.0 0.0 0.0 100.0" Properties=species:S:1:pos:R:3 Energy=-259814.55595790021 Energy_pyscf=-259810.62333972988 pbc="F F F" Energy_pyscf_og=-259814.2459567395
C       51.32340204      50.28570090      49.84889103
C       50.98423954      48.97957230      50.07500814
N       49.71824712      48.36678969      50.05969710
C       48.62784909      49.30179575      50.09559758
N       48.95571288      50.64496452      49.80127114
C       50.23986637      51.29068834      49.90874204
O       47.51014729      49.01896749      50.28049402
O       50.31092694      52.52017155      49.82668815
H       51.80607699      48.31743902      50.47576838
H       49.58203125      47.38359909      50.27536308
H       48.20886972      51.26183213      50.10887243
H       52.26721412      50.71913782      49.65899152
