12
Lattice="100.0 0.0 0.0 0.0 100.0 0.0 0.0 0.0 100.0" Properties=species:S:1:pos:R:3 Energy=-259814.21417488967 Energy_pyscf=-259814.28837301847 pbc="F F F" Energy_pyscf_og=-259813.8968343431
C       51.38588052      50.18313233      49.68127425
C       51.16578788      48.83435615      49.96022824
N       49.92647971      48.40591190      50.27247519
C       48.80719908      49.23134400      50.18423048
N       49.08012260      50.53228417      49.74713871
C       50.32509411      51.12674185      49.80553101
O       47.68630685      48.63143776      50.18911549
O       50.45632238      52.29149110      49.86140203
H       51.98003588      48.09038578      49.99314814
H       49.63229514      47.51013849      50.59480311
H       48.32413936      51.15318819      49.57239212
H       52.38522513      50.57488761      49.39324887
