12
Lattice="100.0 0.0 0.0 0.0 100.0 0.0 0.0 0.0 100.0" Properties=species:S:1:pos:R:3 Energy=-259816.65282990856 Energy_pyscf=-259816.0247705736 pbc="F F F" Energy_pyscf_og=-259816.33667619745
C       51.39848106      50.29469485      49.96716143
C       51.10710843      49.03618423      50.04001929
N       49.86865338      48.40029428      49.92163610
C       48.72944098      49.21720032      50.01623352
N       49.00923418      50.56388737      49.63818519
C       50.23600218      51.23729728      49.74907952
O       47.59321060      48.81563913      50.25766496
O       50.32615370      52.51167751      49.86284051
H       51.90339993      48.24814513      50.12873740
H       49.72450845      47.36461723      50.06163835
H       48.17803578      51.19703303      49.74564134
H       52.40425370      50.74299127      50.17948134
