12
Lattice="100.0 0.0 0.0 0.0 100.0 0.0 0.0 0.0 100.0" Properties=species:S:1:pos:R:3 Energy=-259818.7015652698 Energy_pyscf=-259819.4734045789 pbc="F F F" Energy_pyscf_og=-259818.39327579972
C       51.34799256      50.17166586      49.92076068
C       51.03470830      48.83083714      50.02854698
N       49.73802008      48.39720153      50.10502834
C       48.62927757      49.20925495      49.90287533
N       48.93437269      50.52321177      49.73790865
C       50.22842039      51.12896788      49.79027169
O       47.57612418      48.76029986      50.22318907
O       50.36703471      52.37470179      49.69138708
H       51.83084095      48.11599914      50.23433483
H       49.55661664      47.43957879      50.29704168
H       48.06296024      51.13319634      49.59827236
H       52.37460530      50.60882418      49.82166469
