20
Lattice="100.0 0.0 0.0 0.0 100.0 0.0 0.0 0.0 100.0" Properties=species:S:1:pos:R:3 Energy=-322827.09694770514 Energy_pyscf=-322827.1357147337 Energy_pyscf_og=-322826.7166998585 pbc="F F F"
C       46.20403648      50.74522962      50.29018495
C       47.73521526      50.61695507      50.57536239
O       48.06084724      50.67889035      51.74692607
N       48.60549892      50.50722383      49.56885092
C       50.03584661      50.36271032      49.78791345
C       50.69540903      49.48939125      49.01734061
C       52.00471810      49.12408180      49.15382238
C       52.74361109      49.63084058      50.15388879
O       54.08892963      49.48767082      50.43664396
C       52.11536633      50.61900043      51.04015180
C       50.77672054      50.88395465      50.87217487
H       45.66232647      49.85498217      49.96266860
H       45.80133156      51.47778427      49.59144561
H       45.69271241      51.06052126      51.21690917
H       48.22613562      50.74688112      48.67312332
H       50.12324064      48.93153771      48.31133831
H       52.35297744      48.28824418      48.55726661
H       54.47071428      49.00474368      49.67862772
H       52.74322922      51.15357528      51.71226127
H       50.18854599      51.61625418      51.36595558
