20
Lattice="100.0 0.0 0.0 0.0 100.0 0.0 0.0 0.0 100.0" Properties=species:S:1:pos:R:3 Energy=-322822.24628306186 Energy_pyscf=-322818.58797781466 Energy_pyscf_og=-322821.85562921915 pbc="F F F"
C       46.53779199      50.36143441      50.41110649
C       47.83945218      50.67892416      49.79047122
O       48.24737192      51.69368111      49.19943784
N       48.73525051      49.69330454      49.96468293
C       50.15719926      49.81536353      50.00252868
C       50.79522391      48.99751184      49.04472497
C       52.15404974      48.89014853      48.94093043
C       53.04612120      49.74172682      49.76269054
O       54.34250540      49.92973019      49.35520734
C       52.41440210      50.43157112      50.75216430
C       50.96884768      50.39010249      50.96935076
H       45.58261894      50.70167489      49.89636517
H       46.57922814      50.67617070      51.53552878
H       46.28183146      49.26000153      50.34308562
H       48.46993831      48.74875109      50.24516648
H       49.99795904      48.60802826      48.43139206
H       52.53067763      48.37675266      48.03311197
H       54.38566945      49.30117055      48.59551034
H       52.91302857      51.18889193      51.32092743
H       50.53130511      51.01462430      51.73159336
