20
Lattice="100.0 0.0 0.0 0.0 100.0 0.0 0.0 0.0 100.0" Properties=species:S:1:pos:R:3 Energy=-322819.5034975788 Energy_pyscf=-322819.1439507214 Energy_pyscf_og=-322819.11525927833 pbc="F F F"
C       46.11428339      50.46581240      50.03578566
C       47.48601835      50.51190718      50.77819856
O       47.65246070      50.94942257      51.92300523
N       48.48843000      50.21468922      49.81086197
C       50.00067978      50.09253522      49.81159508
C       50.65837508      49.34842177      48.83263927
C       52.05072728      49.27617810      48.90581731
C       52.82437926      49.72450970      50.13878450
O       54.16863694      49.49729110      50.33463595
C       52.08872449      50.44180489      51.04306693
C       50.69768721      50.66711460      50.90535743
H       45.76149313      51.46800672      49.93315060
H       45.54443208      49.96417531      50.85576988
H       46.02911172      49.87307997      49.13282682
H       48.30214707      49.94415998      48.87589464
H       50.14982386      49.14998581      47.79269884
H       52.47237196      48.66435037      47.96852409
H       54.53151801      48.86452643      49.68313383
H       52.70815094      50.74921389      51.90456715
H       50.13607452      51.38679676      51.46337949
