20
Lattice="100.0 0.0 0.0 0.0 100.0 0.0 0.0 0.0 100.0" Properties=species:S:1:pos:R:3 Energy=-322812.7573406326 Energy_pyscf=-322808.3234744754 Energy_pyscf_og=-322812.3812067792 pbc="F F F"
C       46.06261280      50.41383459      50.12300267
C       47.59297900      50.44583484      50.63967103
O       47.84203324      51.27336548      51.53092049
N       48.58382507      50.15638084      49.72797952
C       50.02279110      50.08343192      50.03308625
C       50.70507452      49.34689148      49.07161285
C       52.06093637      49.14506886      49.05161389
C       52.87324789      49.86197515      49.97640918
O       54.25313678      49.67942763      50.21454253
C       52.15728243      50.73082222      50.98383182
C       50.77293529      50.73014154      51.00984337
H       45.52947729      50.66993235      51.03498316
H       45.75470181      49.39758469      49.74062439
H       46.02134594      51.34374819      49.55091055
H       48.34589680      49.77995869      48.82544441
H       50.21078165      48.61260988      48.29676526
H       52.59006599      48.69130027      48.25762754
H       54.25344342      48.97086539      50.90473960
H       52.64040043      51.38326363      51.67397122
H       50.11143152      51.23394722      51.85647486
