20
Lattice="100.0 0.0 0.0 0.0 100.0 0.0 0.0 0.0 100.0" Properties=species:S:1:pos:R:3 Energy=-322816.70711752743 Energy_pyscf=-322815.02215281496 Energy_pyscf_og=-322816.3182821672 pbc="F F F"
C       46.12483841      50.76135058      50.29857839
C       47.59939424      50.55954842      50.67433133
O       48.00078082      50.41010163      51.80359073
N       48.63368068      50.61350416      49.64466905
C       49.92369895      50.32791796      49.95454061
C       50.62900153      49.49301046      49.01976914
C       51.95299229      49.13780219      49.23410603
C       52.80957673      49.73046284      50.21801264
O       54.17098385      49.50123012      50.30851907
C       52.14655025      50.60388400      51.04417432
C       50.80000711      50.85061772      50.85603232
H       45.80523097      49.84804059      49.87680676
H       45.78940686      51.49766455      49.52833479
H       45.52849361      51.12361860      51.06756673
H       48.41258265      50.69991432      48.71629172
H       50.01996856      48.97795357      48.25915844
H       52.49682614      48.31630723      48.69373705
H       54.37861400      48.84307857      49.55039659
H       52.73138473      51.19919624      51.66483029
H       50.41037843      51.72783635      51.29791605
