20
Lattice="100.0 0.0 0.0 0.0 100.0 0.0 0.0 0.0 100.0" Properties=species:S:1:pos:R:3 Energy=-322817.2292490287 Energy_pyscf=-322815.50408562686 Energy_pyscf_og=-322816.83000733715 pbc="F F F"
C       46.64041053      50.72611381      50.21682434
C       47.91185312      50.32450128      49.78126534
O       48.00098569      49.65275621      48.73270989
N       49.02881523      50.70392725      50.57712300
C       50.34473335      50.28413028      50.32011182
C       50.65906321      48.96278849      50.33812286
C       51.95434960      48.68705711      49.84941758
C       53.00058142      49.63032356      49.66532501
O       54.14660400      49.14261578      49.17201120
C       52.59357396      50.97777687      49.68012164
C       51.29578944      51.33757293      50.01177331
H       46.61267190      50.79987960      51.28058901
H       45.73240867      50.13193667      49.66188948
H       46.48287370      51.67978286      49.66082079
H       48.75748018      51.29161173      51.31421055
H       49.89201523      48.24898392      50.36032383
H       52.27037956      47.65838156      49.76485049
H       53.93247595      48.12726758      49.16298845
H       53.30033281      51.82260398      49.45308370
H       51.00487276      52.33331852      49.88339517
