20
Lattice="100.0 0.0 0.0 0.0 100.0 0.0 0.0 0.0 100.0" Properties=species:S:1:pos:R:3 Energy=-322833.3709097604 Energy_pyscf=-322831.4466839981 Energy_pyscf_og=-322832.999969534 pbc="F F F"
C       46.18027838      50.43529995      49.99704077
C       47.62796736      50.74005759      50.41945906
O       47.90241886      51.84787914      50.86752496
N       48.53071999      49.72745044      50.11881257
C       49.89564078      49.63243878      50.04862077
C       50.52881077      48.90543554      49.05774674
C       51.86699996      49.03133715      48.95409671
C       52.65076617      49.68464557      49.89871510
O       53.95589147      49.89426586      49.81998674
C       51.96177720      50.33956677      51.02145964
C       50.61243785      50.39458228      51.09779790
H       45.41822018      51.01801655      50.56917717
H       45.96633724      49.31897103      50.29394009
H       46.04349946      50.53611944      48.87077482
H       48.12562252      48.89896814      49.75390837
H       49.93932138      48.19800460      48.40298968
H       52.31819086      48.45046120      48.16868292
H       54.35000892      49.23574807      49.17998862
H       52.46271934      50.97513607      51.77302338
H       50.08711163      50.89510727      51.94004720
