20
Lattice="100.0 0.0 0.0 0.0 100.0 0.0 0.0 0.0 100.0" Properties=species:S:1:pos:R:3 Energy=-322829.71857900353 Energy_pyscf=-322811.81390632107 Energy_pyscf_og=-322829.34695468453 pbc="F F F"
C       46.22743668      50.44311504      50.32862867
C       47.64485241      50.75749266      50.55225100
O       48.00437281      51.69096880      51.27494678
N       48.56616911      50.36586068      49.59467355
C       49.96806510      50.01869965      49.90513562
C       50.64600376      49.24652880      48.92687154
C       52.03779961      49.16278341      48.99918314
C       52.67141437      49.82702526      50.06115440
O       54.10084244      49.74136841      50.21091829
C       52.05924448      50.44891360      51.10840685
C       50.64914976      50.56022501      51.02890486
H       45.69017238      50.83802378      51.15637319
H       46.01428867      49.37282896      50.11868346
H       45.71124318      50.80800589      49.36299943
H       48.34776151      50.11238356      48.59340745
H       50.13286767      48.59725131      48.21597589
H       52.72464333      48.62618107      48.33452663
H       54.53240816      49.52321380      51.05700442
H       52.66522780      50.95675553      51.83028072
H       49.99418723      50.83532908      51.83671233
