20
Lattice="100.0 0.0 0.0 0.0 100.0 0.0 0.0 0.0 100.0" Properties=species:S:1:pos:R:3 Energy=-322827.0474870231 Energy_pyscf=-322816.94343578105 Energy_pyscf_og=-322826.6777234332 pbc="F F F"
C       46.19644925      50.42005708      50.15338048
C       47.72194262      50.81858278      50.58759052
O       47.99947056      51.58058827      51.51507609
N       48.58260226      50.32024886      49.68138601
C       50.01135539      50.06791176      49.88235458
C       50.74041874      49.19866312      49.06949270
C       52.07096184      49.11615624      49.04223449
C       52.73064032      49.70733088      50.06889903
O       54.06404016      49.72005395      50.08204822
C       52.07337814      50.46538500      51.02641821
C       50.60391944      50.58331045      51.01910751
H       45.73090129      50.60533445      51.20291729
H       46.16818523      49.40236240      49.65649227
H       45.78725108      51.13606279      49.37720039
H       48.27311494      49.99724187      48.79080488
H       50.06068705      48.64288439      48.29425209
H       52.48710074      48.38738549      48.23995737
H       54.37845775      49.88009350      50.98434568
H       52.61196884      51.00542795      51.88718469
H       50.08033834      50.89294482      51.94473661
