20
Lattice="100.0 0.0 0.0 0.0 100.0 0.0 0.0 0.0 100.0" Properties=species:S:1:pos:R:3 Energy=-322829.22738308046 Energy_pyscf=-322824.68210317474 Energy_pyscf_og=-322828.8424536356 pbc="F F F"
C       46.43422453      51.15188878      50.51154459
C       47.88307706      50.96954128      50.00376972
O       48.48077362      51.72161276      49.22945160
N       48.52156736      50.02335828      50.79190926
C       50.00552293      49.96891696      50.45857121
C       50.60785757      48.87168338      49.84821734
C       51.91327486      48.96107887      49.32240674
C       52.76187458      49.99103590      49.76188766
O       54.14219573      49.95298129      49.59426467
C       52.16595300      51.09882697      50.49774023
C       50.75467949      51.11689926      50.74725863
H       45.87923677      51.10503258      49.59417250
H       46.19768884      52.01407978      51.10683142
H       46.22747717      50.28890306      51.15680400
H       48.10045024      49.20590164      51.13371029
H       50.05430384      48.03216569      49.48324261
H       52.24022911      48.13398986      48.57325567
H       54.31564134      49.26497345      48.95197934
H       52.74657095      51.98194689      50.76530883
H       50.34404214      52.00924127      51.07068488
