20
Lattice="100.0 0.0 0.0 0.0 100.0 0.0 0.0 0.0 100.0" Properties=species:S:1:pos:R:3 Energy=-322822.6848818247 Energy_pyscf=-322812.0266124033 Energy_pyscf_og=-322822.32328368287 pbc="F F F"
C       46.14426274      50.53624791      50.24713835
C       47.63059319      50.48680381      50.79855042
O       47.78510024      50.95795043      51.91626427
N       48.50170255      49.79093810      50.09415596
C       49.86584325      49.91875260      50.04125079
C       50.57710303      49.14447431      49.12554854
C       52.06081349      49.11367265      49.06627937
C       52.66994557      49.64629263      50.13174489
O       53.97148089      49.49266864      50.54069815
C       51.94430165      50.30694820      51.12245474
C       50.59562632      50.72177577      50.86871178
H       45.75273843      49.89621949      49.47623686
H       45.73488787      51.53581561      50.12613762
H       45.45999293      50.07996373      51.06569705
H       48.09330573      49.27509832      49.33717091
H       49.96146249      48.46768739      48.42868870
H       52.56013404      48.70640017      48.19717770
H       54.37200693      48.86943007      49.86528369
H       52.60498758      50.81027099      51.75820168
H       49.99588304      51.46105840      51.52959309
