20
Lattice="100.0 0.0 0.0 0.0 100.0 0.0 0.0 0.0 100.0" Properties=species:S:1:pos:R:3 Energy=-322826.0074818506 Energy_pyscf=-322825.73781188973 Energy_pyscf_og=-322825.61417161615 pbc="F F F"
C       46.48557345      50.33610151      50.27287573
C       47.94893107      50.64174002      49.90956378
O       48.25018885      51.61653399      49.20823342
N       48.78185538      49.67624326      50.37748572
C       50.21779151      49.70783610      50.14182530
C       50.71313519      49.01030452      48.96924970
C       52.06770712      48.95717762      48.72072068
C       52.95522315      49.60670097      49.63908872
O       54.30938970      49.60195062      49.49060215
C       52.43738115      50.48083243      50.60389499
C       51.08059288      50.41693724      50.93881103
H       45.73570631      50.79418909      49.67099621
H       46.21726396      50.70118910      51.37235420
H       46.13667338      49.18669445      50.32352935
H       48.32582058      48.77642582      50.54696440
H       49.88651828      48.63051789      48.38417897
H       52.58793729      48.20542969      48.11727624
H       54.51836897      50.02512211      48.66505018
H       53.08156241      51.17031182      51.14292430
H       50.73024381      50.98873523      51.87871865
