20
Lattice="100.0 0.0 0.0 0.0 100.0 0.0 0.0 0.0 100.0" Properties=species:S:1:pos:R:3 Energy=-322828.45276469114 Energy_pyscf=-322826.8939089725 Energy_pyscf_og=-322828.0712880217 pbc="F F F"
C       46.26119598      50.91516871      50.19859003
C       47.58765744      50.57660235      50.73243253
O       47.85909414      50.32181184      51.89282615
N       48.54237422      50.29830823      49.77943439
C       49.96835364      50.23409395      49.97544531
C       50.69096681      49.39017951      49.07380722
C       52.01107793      49.03553424      49.21670799
C       52.78463277      49.73724408      50.16950381
O       54.06412133      49.47712494      50.28937226
C       52.11318019      50.65048359      50.98529035
C       50.76477643      50.94532512      50.83914389
H       45.72802482      49.89025978      50.22063000
H       46.16836910      51.24204663      49.23120478
H       45.72533837      51.43824595      50.96613309
H       48.25153459      50.74412979      48.87495247
H       50.07454404      49.01095422      48.14226925
H       52.48837548      48.46249234      48.46718545
H       54.31326312      48.92395511      49.54352668
H       52.63608005      51.26434520      51.75043059
H       50.30518854      51.69013953      51.41506389
