20
Lattice="100.0 0.0 0.0 0.0 100.0 0.0 0.0 0.0 100.0" Properties=species:S:1:pos:R:3 Energy=-322824.66240810486 Energy_pyscf=-322822.4934253025 Energy_pyscf_og=-322824.2822425992 pbc="F F F"
C       46.19350987      50.50006634      50.27982724
C       47.71262253      50.75556187      50.60965181
O       47.92337209      51.38998963      51.62381172
N       48.60410702      50.19775170      49.73028206
C       50.00570077      49.95001496      49.91426444
C       50.75646579      49.17449669      48.99149470
C       52.06674941      49.17628547      49.00641803
C       52.78307997      49.83820128      50.01517255
O       54.16874097      49.58146832      50.14672992
C       52.06916028      50.47482963      51.08283543
C       50.62287153      50.56062129      50.97600321
H       45.38627218      50.67998334      51.01455018
H       46.03130163      49.43131165      49.83454722
H       46.00957056      51.10091044      49.40948848
H       48.13009188      50.07917462      48.82710921
H       50.19575410      48.67083833      48.12218632
H       52.55430898      48.45482305      48.35214068
H       54.43104188      49.69582281      51.02109698
H       52.61686600      51.19444614      51.79647265
H       50.13807602      51.02351364      51.77998764
