20
Lattice="100.0 0.0 0.0 0.0 100.0 0.0 0.0 0.0 100.0" Properties=species:S:1:pos:R:3 Energy=-322825.32683370967 Energy_pyscf=-322822.9589342951 Energy_pyscf_og=-322824.95934781514 pbc="F F F"
C       46.14520555      49.99578762      50.20204073
C       47.51502006      50.39460561      50.63118295
O       47.64275935      51.17821175      51.52748988
N       48.40873392      49.68295167      49.81506242
C       49.86647691      49.97655083      49.81491716
C       50.56697388      49.28854747      48.77897882
C       51.94373064      49.02770856      48.90974282
C       52.60378812      49.44121024      50.02861917
O       53.98804470      49.22748793      50.14787438
C       51.90716490      50.17211778      51.06747969
C       50.60486779      50.52819465      50.89495138
H       45.98638635      48.93428546      50.32606854
H       46.03765064      50.48176593      49.21127906
H       45.38113287      50.38748127      50.95496368
H       48.08594566      49.31483074      48.88742648
H       50.05837578      48.76800438      48.03935954
H       52.43548431      48.53724065      48.07560000
H       54.27419107      50.02365811      50.75605765
H       52.44907603      50.72948646      51.84513699
H       50.02627490      51.11456461      51.70919186
