20
Lattice="100.0 0.0 0.0 0.0 100.0 0.0 0.0 0.0 100.0" Properties=species:S:1:pos:R:3 Energy=-322829.2650754003 Energy_pyscf=-322830.31991709594 Energy_pyscf_og=-322828.8907828114 pbc="F F F"
C       46.07670059      50.39441707      50.31708174
C       47.55410845      50.56492654      50.81691063
O       47.80913380      51.11734238      51.86715632
N       48.51003519      49.93687644      50.00933640
C       49.83642322      50.01666425      50.09088541
C       50.52481956      49.22666830      49.10942941
C       51.91524324      49.07838767      49.07506513
C       52.66030137      49.65196784      50.14260607
O       54.05000828      49.54527171      50.12317045
C       51.95814441      50.38482204      51.07008198
C       50.57265269      50.62957734      51.10995326
H       46.20981352      49.75188086      49.36275272
H       45.86869182      51.40584651      50.04395438
H       45.33426424      49.83079477      50.98414059
H       48.11225677      49.48353194      49.19063738
H       49.77972559      48.67258399      48.53973617
H       52.44327336      48.47157220      48.38534630
H       54.25100893      48.63888259      49.95634283
H       52.65265366      51.00238659      51.71191291
H       50.11372889      51.36688239      51.81835826
