20
Lattice="100.0 0.0 0.0 0.0 100.0 0.0 0.0 0.0 100.0" Properties=species:S:1:pos:R:3 Energy=-322828.9043406705 Energy_pyscf=-322825.35639574146 Energy_pyscf_og=-322828.5230780298 pbc="F F F"
C       46.26413566      50.74321599      49.75438421
C       47.58847864      50.64171854      50.40814528
O       47.79540742      50.90588959      51.60463175
N       48.59589641      50.35391080      49.53564868
C       49.93480742      50.07476301      49.75134903
C       50.70847820      49.34598113      48.85739132
C       52.02764748      49.08745280      48.94851582
C       52.88719711      49.72366626      49.89198314
O       54.22942760      49.51709858      50.05188538
C       52.18003807      50.63979001      50.77498025
C       50.68680601      50.73158175      50.75999352
H       46.10028596      50.00118930      48.97229422
H       46.17190947      51.74418807      49.38334773
H       45.41280876      50.56322868      50.49714020
H       48.28176912      50.36247372      48.56637918
H       50.24080884      48.88045527      48.02783911
H       52.58966864      48.31218038      48.38756165
H       54.66585941      50.34036189      50.35494753
H       52.74424943      50.95544169      51.62739145
H       50.20833029      51.32420598      51.39509176
