20
Lattice="100.0 0.0 0.0 0.0 100.0 0.0 0.0 0.0 100.0" Properties=species:S:1:pos:R:3 Energy=-322833.59429494734 Energy_pyscf=-322829.2358710485 Energy_pyscf_og=-322833.2148725925 pbc="F F F"
C       46.05280757      50.56978009      50.17889297
C       47.53364567      50.71612402      50.50770685
O       47.91021509      51.42518782      51.40190255
N       48.44295815      50.08051067      49.70233510
C       49.86753116      49.97324160      49.90850131
C       50.63265944      49.12026657      48.91778937
C       51.96306045      49.10282469      48.96713692
C       52.67305304      49.64740568      50.03419295
O       54.03265694      49.85652375      49.92280244
C       51.98193646      50.30208134      51.09457270
C       50.62762466      50.54193317      50.92538895
H       45.91612036      49.66184292      49.64681322
H       45.71138646      51.28499764      49.33555733
H       45.41856014      50.74260486      51.06107915
H       47.98070605      49.57879589      48.95294044
H       50.12672468      48.64600903      48.14693908
H       52.66282655      48.70386201      48.22157225
H       54.43407521      49.81093762      50.78543457
H       52.52500501      50.59484423      51.97571979
H       50.11844206      51.21772986      51.56878730
