20
Lattice="100.0 0.0 0.0 0.0 100.0 0.0 0.0 0.0 100.0" Properties=species:S:1:pos:R:3 Energy=-322824.138343779 Energy_pyscf=-322824.2582035167 Energy_pyscf_og=-322823.757682307 pbc="F F F"
C       46.61004539      51.19831710      50.36105626
C       47.74090625      50.53962709      49.57505916
O       47.74966931      50.14816299      48.43397319
N       48.74954807      50.30547574      50.53886511
C       50.07994794      50.18062442      50.22048743
C       50.72260793      48.92330354      50.42078801
C       52.03220187      48.68129467      50.03047902
C       52.85956379      49.81577751      49.63055441
O       54.15169520      49.61673275      49.15855752
C       52.30716297      51.04326714      49.66675705
C       50.90519066      51.22508762      49.95513601
H       46.34930308      50.46272607      51.17414647
H       45.77578038      51.03798593      49.64800678
H       46.65825061      52.27438691      50.76581291
H       48.49577874      50.82539736      51.40579414
H       50.06450212      48.06038861      50.53536950
H       52.49575704      47.70579770      49.92447971
H       54.32746445      48.62124098      49.12522879
H       52.99196788      51.88746425      49.52817156
H       50.42386546      52.13518880      49.76514839
