20
Lattice="100.0 0.0 0.0 0.0 100.0 0.0 0.0 0.0 100.0" Properties=species:S:1:pos:R:3 Energy=-322827.3343025538 Energy_pyscf=-322826.36345226545 Energy_pyscf_og=-322826.9663125268 pbc="F F F"
C       46.31705359      50.75561334      50.00785133
C       47.67664342      50.75226398      50.43606735
O       47.92588840      51.37303045      51.50182014
N       48.53501651      49.99880910      49.65286262
C       49.91411273      49.76295346      49.83199469
C       50.60774595      49.11059265      48.84150195
C       52.00807863      48.93062437      48.97428572
C       52.62410679      49.66709162      50.04360046
O       54.05013744      49.66461698      50.10155425
C       51.93877630      50.43787076      50.89542378
C       50.52231094      50.35256643      50.88268094
H       46.28164796      51.72980981      49.35645452
H       45.55512665      50.75095902      50.81485175
H       46.04797492      49.93687182      49.30618079
H       48.12151479      49.33278186      48.99580811
H       50.17197959      48.46523998      48.08848199
H       52.65415537      48.47716814      48.25259723
H       54.22778845      50.57972185      50.36004780
H       52.53098000      50.91040415      51.65170976
H       50.02915563      50.95413084      51.58417024
