20
Lattice="100.0 0.0 0.0 0.0 100.0 0.0 0.0 0.0 100.0" Properties=species:S:1:pos:R:3 Energy=-322827.7369301624 Energy_pyscf=-322824.8308048013 Energy_pyscf_og=-322827.3740621917 pbc="F F F"
C       46.29861305      50.72104740      50.19572086
C       47.77529628      50.65059610      50.68718965
O       48.10128501      50.87666468      51.85219407
N       48.72213970      50.19026482      49.69972879
C       50.08279679      50.14410369      49.90250090
C       50.90328543      49.46624646      48.92719725
C       52.23613241      49.16394839      49.15335787
C       52.91143874      49.70017428      50.25278006
O       54.24415928      49.48370553      50.49069872
C       52.23348457      50.37794705      51.23201901
C       50.81395846      50.63316002      50.94055202
H       46.11913686      51.23326670      49.25150375
H       45.75634884      51.04313900      51.19603385
H       45.83142163      49.68817316      50.06188803
H       48.35204289      49.39303018      49.10521340
H       50.35867324      49.24021356      48.01996366
H       52.70835885      48.50837561      48.40170368
H       54.31044807      49.69259781      51.41093397
H       52.82378838      50.87938596      52.00212669
H       50.36666532      51.21368657      51.69136968
