20
Lattice="100.0 0.0 0.0 0.0 100.0 0.0 0.0 0.0 100.0" Properties=species:S:1:pos:R:3 Energy=-322831.8214311909 Energy_pyscf=-322831.1332042808 Energy_pyscf_og=-322831.4513162255 pbc="F F F"
C       46.25802902      50.09857046      50.04311207
C       47.64290495      50.51955377      50.32482441
O       47.96848465      51.48942944      50.94692468
N       48.53769431      49.60939787      49.89860414
C       49.93051855      49.54815044      50.05094549
C       50.57605206      48.73930325      49.11361071
C       51.94364070      48.92443600      48.97787659
C       52.64257866      49.56490932      49.97048999
O       54.05022388      49.38148899      49.94592346
C       51.97639265      50.25830118      50.93695653
C       50.56760935      50.28582101      50.99453349
H       46.17225896      49.01807459      50.12789353
H       45.93196700      50.39046886      48.97172317
H       45.56118688      50.63733443      50.70475282
H       48.12350064      48.83213438      49.42825738
H       50.03404185      48.27494400      48.37316096
H       52.56422606      48.56292273      48.16066006
H       54.38591908      50.26524281      50.13694248
H       52.53634342      50.91336687      51.63987594
H       50.09842685      50.99037836      51.58343505
