20
Lattice="100.0 0.0 0.0 0.0 100.0 0.0 0.0 0.0 100.0" Properties=species:S:1:pos:R:3 Energy=-322830.3157299037 Energy_pyscf=-322829.66528108396 Energy_pyscf_og=-322829.93368819926 pbc="F F F"
C       46.25453350      50.58405681      50.23885419
C       47.69597856      50.77663790      50.70383185
O       47.98657263      51.08569202      51.85493645
N       48.64358760      50.32171823      49.71829003
C       50.08729986      50.16117710      49.91379343
C       50.84981495      49.50118785      48.91370302
C       52.30883094      49.27914428      49.12597718
C       52.93652037      49.74299143      50.25008721
O       54.23099394      49.29154146      50.39475678
C       52.20489075      50.43301459      51.20208108
C       50.80872396      50.67483279      51.11071367
H       46.08284270      51.31894428      49.42569012
H       45.64906058      50.94786256      51.14178601
H       46.03218142      49.56762748      49.96360530
H       48.33982063      49.81169393      48.94582125
H       50.36718248      48.96865122      48.03656010
H       52.76754559      48.42947968      48.47792570
H       54.58697314      49.56607149      51.33215176
H       52.70137515      51.07903915      51.88905562
H       50.22711137      51.18516147      51.89893893
