20
Lattice="100.0 0.0 0.0 0.0 100.0 0.0 0.0 0.0 100.0" Properties=species:S:1:pos:R:3 Energy=-322830.92703125667 Energy_pyscf=-322830.6261567341 Energy_pyscf_og=-322830.5520652129 pbc="F F F"
C       46.22155575      50.72402507      50.23899421
C       47.65116810      50.61244863      50.71019088
O       47.97118075      50.48384631      51.86750324
N       48.60185922      50.53700405      49.67593304
C       49.99592130      50.41995044      49.80918680
C       50.68174127      49.50091044      48.99559570
C       51.91447134      49.03172471      49.13543381
C       52.71491120      49.66206571      50.18618718
O       54.09612688      49.53517111      50.32787446
C       52.10353783      50.61481367      51.08807357
C       50.74902831      50.92717794      50.87549383
H       45.60552087      49.82408455      50.29159736
H       46.11598329      51.16365354      49.27460430
H       45.61333035      51.29222460      50.95138320
H       48.24485456      50.73430992      48.74019081
H       50.09606532      49.18407963      48.12328380
H       52.27570859      48.17427090      48.50081900
H       54.52426386      48.93301603      49.67375993
H       52.75354586      51.24860944      51.72858109
H       50.46469644      51.64172080      51.57158457
