20
Lattice="100.0 0.0 0.0 0.0 100.0 0.0 0.0 0.0 100.0" Properties=species:S:1:pos:R:3 Energy=-322829.2650754003 Energy_pyscf=-322830.2684037967 Energy_pyscf_og=-322828.8907828114 pbc="F F F"
C       46.07771854      50.39577184      50.31796060
C       47.55519431      50.56489928      50.81869275
O       47.80988348      51.11372235      51.87077130
N       48.51159149      49.93843329      50.00994694
C       49.83768179      50.01820771      50.09117597
C       50.52537677      49.22561428      49.11134671
C       51.91619754      49.07879402      49.07828080
C       52.66164783      49.65434302      50.14361041
O       54.05143727      49.54737735      50.12351068
C       51.95947422      50.39070797      51.06855202
C       50.57343745      50.63095007      51.11105880
H       46.21163123      49.75429972      49.36295443
H       45.87101946      51.40777317      50.04509946
H       45.33427099      49.83276301      50.98399546
H       48.11338116      49.48403192      49.19206988
H       49.78056753      48.66865985      48.54445008
H       52.44386097      48.47129076      48.38896211
H       54.25181686      48.64026793      49.95971656
H       52.65506294      51.01134986      51.70648917
H       50.11445932      51.36264095      51.82538611
