20
Lattice="100.0 0.0 0.0 0.0 100.0 0.0 0.0 0.0 100.0" Properties=species:S:1:pos:R:3 Energy=-322822.33088342735 Energy_pyscf=-322822.39458502585 Energy_pyscf_og=-322821.9383456798 pbc="F F F"
C       46.38913986      50.29243919      50.33840135
C       47.85956457      50.73821347      49.98383970
O       48.19612377      51.81627974      49.55030761
N       48.72356172      49.63459233      50.12794128
C       50.14329788      49.61272261      49.95441406
C       50.88985960      48.93616054      48.88539445
C       52.24254362      48.95968362      48.71508892
C       53.00943740      49.72839683      49.64211442
O       54.34065526      49.96326016      49.37827356
C       52.40266874      50.51285884      50.66794356
C       51.01372321      50.45504708      50.85426000
H       45.66222820      51.03996363      49.83842428
H       46.11800065      50.73070186      51.32642942
H       46.05876608      49.17516563      50.39880947
H       48.25921848      48.79934205      50.58090688
H       50.27746686      48.31125200      48.26332835
H       52.79475878      48.16593434      48.19840289
H       54.56258066      49.44595798      48.53583559
H       52.94345724      51.24305994      51.27440140
H       50.61011585      50.90779482      51.80975259
