20
Lattice="100.0 0.0 0.0 0.0 100.0 0.0 0.0 0.0 100.0" Properties=species:S:1:pos:R:3 Energy=-322822.0618962233 Energy_pyscf=-322821.9676725442 Energy_pyscf_og=-322821.70223047026 pbc="F F F"
C       46.03910279      50.60689188      50.13586601
C       47.53774281      50.63399593      50.55469060
O       47.95552158      51.41953805      51.36754876
N       48.42965217      49.76252403      49.86097501
C       49.88450961      49.94910983      49.83598183
C       50.63364787      49.25642733      48.91750354
C       51.98253344      48.98148193      48.89351287
C       52.69686198      49.70651664      49.92792023
O       54.08706059      49.75993031      50.15328763
C       52.03787225      50.42997326      50.93592040
C       50.58266707      50.43581347      50.96557983
H       45.74847504      49.59091773      49.71454152
H       45.95670576      51.27432198      49.27521629
H       45.60057156      50.91367314      51.12169024
H       48.09281769      49.62993474      48.91382918
H       50.06597759      48.83694511      48.11521475
H       52.48504110      48.58523244      47.98967777
H       54.19082004      50.01353705      51.12380466
H       52.60302211      50.73999710      51.80744335
H       50.00977133      51.04273435      51.62978793
