20
Lattice="100.0 0.0 0.0 0.0 100.0 0.0 0.0 0.0 100.0" Properties=species:S:1:pos:R:3 Energy=-322822.75173161196 Energy_pyscf=-322822.76739398885 Energy_pyscf_og=-322822.36506119004 pbc="F F F"
C       46.31618221      51.25825045      50.30821036
C       47.55488063      50.52257734      49.94229447
O       47.51570591      49.68326552      49.03960134
N       48.67924861      50.87009197      50.78881108
C       49.97114107      50.45326005      50.41045315
C       50.38312592      49.09486602      50.40942624
C       51.74429345      48.76947603      50.30704864
C       52.73910158      49.77927416      49.91480102
O       54.07539466      49.45121806      49.89505153
C       52.28119334      51.09286693      49.72797643
C       50.96026382      51.37717187      50.10389905
H       46.43991516      52.09925758      50.90126403
H       45.56980169      50.73757602      50.93441382
H       45.68642141      51.52624464      49.38996407
H       48.71610311      51.85469851      50.94097432
H       49.52242090      48.41459572      50.77529817
H       52.15856802      47.72620233      50.46095321
H       54.09527753      49.04021987      48.98814864
H       53.11729002      51.76777673      49.40307119
H       50.60908644      52.43499007      50.23056241
