20
Lattice="100.0 0.0 0.0 0.0 100.0 0.0 0.0 0.0 100.0" Properties=species:S:1:pos:R:3 Energy=-322825.7241596445 Energy_pyscf=-322821.98258397396 Energy_pyscf_og=-322825.33970289706 pbc="F F F"
C       46.29639006      50.59069451      50.36106758
C       47.81813355      50.60504416      50.71524326
O       48.14662492      50.79074562      51.88751936
N       48.73094577      50.34688666      49.66376653
C       50.07881457      50.19236509      49.89338076
C       50.87294430      49.36638231      48.91688714
C       52.24492809      49.18854099      49.13762607
C       52.86617757      49.66016803      50.28349435
O       54.03656707      49.22437063      50.69593560
C       52.21505008      50.57138953      51.02218543
C       50.82722364      50.60421270      50.96740428
H       46.31174247      51.30402361      49.48891931
H       45.70254735      50.84631045      51.22613068
H       46.10612808      49.61433577      49.94778722
H       48.25884398      49.94560239      48.79173392
H       50.35461149      48.91604190      48.07833126
H       52.82726276      48.46524014      48.40060816
H       54.18030996      49.71259682      51.49816751
H       52.78189276      51.06794626      51.76020050
H       50.31419254      51.32897951      51.67722240
