20
Lattice="100.0 0.0 0.0 0.0 100.0 0.0 0.0 0.0 100.0" Properties=species:S:1:pos:R:3 Energy=-322827.51981986134 Energy_pyscf=-322821.9425416808 Energy_pyscf_og=-322827.13348640036 pbc="F F F"
C       46.59515694      50.85755966      50.22383101
C       47.89056860      50.32362770      49.71068164
O       47.95689406      49.65441303      48.68950452
N       49.03254570      50.56367796      50.50742016
C       50.36937628      50.23314543      50.22735639
C       50.74129666      48.93016324      50.13280326
C       52.01974052      48.60410195      49.80632220
C       52.89029748      49.65873432      49.33086410
O       54.19666616      49.23256682      49.24537717
C       52.51856368      50.97815697      49.54044853
C       51.22138440      51.33295226      49.95053473
H       46.52656280      51.08320850      51.29292741
H       45.69615483      50.12897363      49.95826961
H       46.35563084      51.66278382      49.50524426
H       48.87542410      51.20845334      51.24618966
H       49.99934765      48.20835927      50.47788021
H       52.38176364      47.57102709      50.00540865
H       54.03553653      48.21259527      49.15789993
H       53.31487303      51.69570807      49.74611577
H       51.00474386      52.35014321      50.15277834
