20
Lattice="100.0 0.0 0.0 0.0 100.0 0.0 0.0 0.0 100.0" Properties=species:S:1:pos:R:3 Energy=-322829.07709705085 Energy_pyscf=-322828.3644355809 Energy_pyscf_og=-322828.70385356946 pbc="F F F"
C       46.26497657      50.78238305      49.82689055
C       47.64239906      50.51034826      50.40230396
O       47.89409054      51.20860830      51.38992409
N       48.52820937      49.80983895      49.73085188
C       49.87216507      49.74715688      49.86197304
C       50.70696985      49.03255852      48.86554266
C       52.04062551      49.02839515      48.86175024
C       52.73086720      49.70486546      49.89082574
O       54.07781340      49.55045436      49.87445725
C       52.04142533      50.38690969      50.89452133
C       50.62350802      50.32716103      50.90168083
H       46.23832694      51.85139572      49.45012478
H       45.45542994      50.66880048      50.58002478
H       46.08236460      49.92941493      49.12524120
H       48.11686554      49.23868799      49.02053013
H       50.13063158      48.38433276      48.16129506
H       52.82792158      48.39454914      48.26842272
H       54.46072245      50.23262809      50.42754600
H       52.57485637      50.85832742      51.69449004
H       50.10349981      51.01492698      51.49785665
