20
Lattice="100.0 0.0 0.0 0.0 100.0 0.0 0.0 0.0 100.0" Properties=species:S:1:pos:R:3 Energy=-322819.1105341155 Energy_pyscf=-322809.4037961186 Energy_pyscf_og=-322818.7122362388 pbc="F F F"
C       46.62944850      50.52583120      50.00771868
C       48.16526889      50.55847217      50.43895134
O       48.55713783      49.99196802      51.47861009
N       49.05583603      51.12559042      49.52179126
C       50.40451428      50.66346948      49.65673468
C       50.69566794      49.37457145      49.09267756
C       52.01321111      48.91732936      49.17799601
C       52.86852983      49.58531526      50.05943162
O       53.85330779      48.75614691      50.65543402
C       52.55878272      50.75012697      50.57330164
C       51.36383772      51.38822795      50.41890983
H       46.17912110      49.70146015      50.57660764
H       46.42307367      50.38502853      48.95831340
H       46.17444436      51.41445727      50.42475086
H       48.70912593      51.15095234      48.56981850
H       49.93019315      48.78865192      48.76442123
H       52.15965137      47.96886800      48.79608834
H       54.34397636      48.17797864      50.00273004
H       53.23221842      51.42336640      51.07439091
H       50.97903568      52.22780199      51.02487241
