20
Lattice="100.0 0.0 0.0 0.0 100.0 0.0 0.0 0.0 100.0" Properties=species:S:1:pos:R:3 Energy=-322826.19730959286 Energy_pyscf=-322823.2791599491 Energy_pyscf_og=-322825.81646727305 pbc="F F F"
C       46.30847636      50.34311091      49.82463338
C       47.80208724      50.65813351      50.21710920
O       48.13169636      51.72025239      50.73522518
N       48.73683645      49.69531180      49.79489722
C       50.17367556      49.68391352      50.05783411
C       50.90039275      49.02248057      48.98899228
C       52.31831123      48.89118344      48.93377802
C       52.96856543      49.64823552      49.84491616
O       54.33573002      49.64734261      49.77626929
C       52.29680099      50.22958183      50.90953708
C       50.93818521      50.10558730      51.09711375
H       45.86577871      51.05389433      49.10623969
H       45.75198772      50.61953460      50.77292854
H       46.24713798      49.22724989      49.63400385
H       48.31941859      48.95493600      49.26185820
H       50.35030958      48.67021112      48.05939582
H       52.65345438      48.45106347      48.05247462
H       54.70755108      50.54200544      49.95850052
H       52.90971047      50.78505482      51.57125733
H       50.39008131      50.40239213      52.08338462
