20
Lattice="100.0 0.0 0.0 0.0 100.0 0.0 0.0 0.0 100.0" Properties=species:S:1:pos:R:3 Energy=-322824.8685098385 Energy_pyscf=-322823.7504078591 Energy_pyscf_og=-322824.4860006534 pbc="F F F"
C       46.39268108      51.21959876      50.13503950
C       47.38527837      50.27895925      49.64180035
O       47.22960752      49.03367843      49.38770357
N       48.57043361      50.93255504      49.57950237
C       49.90906249      50.52036132      49.43191395
C       50.24891545      49.19104276      49.42922162
C       51.56110482      48.64475409      49.43583638
C       52.54436093      49.66760121      49.42534240
O       53.91638305      49.44635360      49.54721079
C       52.22249648      51.00235311      49.60499216
C       50.94021455      51.41341331      49.51181086
H       46.74604272      52.25967196      50.13930596
H       46.09340580      51.13825902      51.12719914
H       45.46841125      50.96496467      49.50961705
H       48.53673928      51.89672423      49.89564748
H       49.44574165      48.50623456      49.55030386
H       51.74126568      47.57236888      49.22735767
H       54.23956515      48.71929772      48.97792826
H       53.12266682      51.65948540      49.50995497
H       50.80296679      52.45102617      49.54182577
