20
Lattice="100.0 0.0 0.0 0.0 100.0 0.0 0.0 0.0 100.0" Properties=species:S:1:pos:R:3 Energy=-322826.62017904577 Energy_pyscf=-322826.0576328115 Energy_pyscf_og=-322826.2473205411 pbc="F F F"
C       46.30864721      50.62032843      50.31919870
C       47.79583591      50.61704729      50.67154190
O       48.13345334      50.88513945      51.78191764
N       48.72129378      50.30426033      49.72024573
C       50.12618062      50.19668237      49.93326714
C       50.88140717      49.46833700      48.99235422
C       52.19432610      49.08353398      49.15058141
C       52.87808633      49.75026431      50.18884968
O       54.26622524      49.65625595      50.42563438
C       52.18256565      50.51829047      51.13207551
C       50.82066582      50.65608640      51.00467465
H       46.23726036      51.31481339      49.48012977
H       45.55600076      50.76507245      51.04723235
H       46.04220740      49.64910980      49.97728617
H       48.31241227      49.88610101      48.87745470
H       50.41690671      48.93255485      48.19347585
H       52.73863602      48.33127511      48.50536326
H       54.43193176      49.23208449      51.25136546
H       52.59548897      51.11234092      52.00712221
H       50.32524253      51.35576624      51.75666224
