20
Lattice="100.0 0.0 0.0 0.0 100.0 0.0 0.0 0.0 100.0" Properties=species:S:1:pos:R:3 Energy=-322820.7743872493 Energy_pyscf=-322820.4641320495 Energy_pyscf_og=-322820.3966136636 pbc="F F F"
C       46.37475367      50.65622286      50.39282080
C       47.77872074      50.56703306      50.78912556
O       48.12229602      50.82494231      51.91198301
N       48.68515382      50.28858079      49.69330587
C       50.08083702      50.09728095      49.84774537
C       50.85967900      49.37004029      48.94951059
C       52.26801831      49.29172897      49.10209327
C       52.78266331      49.72431945      50.23802456
O       54.11927308      49.36765176      50.41321748
C       52.09201973      50.56161092      51.13596511
C       50.71451552      50.72268581      50.95408378
H       46.44166522      51.30790423      49.53955416
H       45.62782711      50.78212982      51.10041925
H       46.15311714      49.61296438      49.95981428
H       48.55469413      50.09327098      48.76426556
H       50.36386470      48.68432452      48.19296141
H       52.76326689      48.54719535      48.54038619
H       54.39714199      49.33039859      51.36182117
H       52.63136169      51.12386620      51.88200168
H       50.15422589      51.40779050      51.62952777
