20
Lattice="100.0 0.0 0.0 0.0 100.0 0.0 0.0 0.0 100.0" Properties=species:S:1:pos:R:3 Energy=-322823.53372395365 Energy_pyscf=-322822.3778067154 Energy_pyscf_og=-322823.16740886663 pbc="F F F"
C       46.28124747      50.50539607      50.29843169
C       47.73254078      50.72144451      50.66320009
O       48.06991457      51.37040100      51.66532403
N       48.50839446      50.27750510      49.73063874
C       49.98004739      50.13683325      49.70545307
C       50.72842293      49.37638907      48.80543431
C       52.11451628      49.23375186      48.93246048
C       52.86217497      49.86865006      49.92861070
O       54.18684768      49.59534485      50.25279850
C       52.05364027      50.60983424      50.94013898
C       50.66217530      50.57255963      50.84264801
H       45.50947842      50.79252588      51.08611074
H       46.07103830      49.41968396      50.01878081
H       45.99779374      51.06028878      49.37252740
H       48.04213618      49.80931841      48.93169307
H       50.32893158      48.56295636      48.18982000
H       52.65932657      48.50382985      48.39832017
H       53.99366092      49.61623981      51.24436768
H       52.52953220      50.97501904      51.82945226
H       50.06669096      50.95953457      51.65516616
