20
Lattice="100.0 0.0 0.0 0.0 100.0 0.0 0.0 0.0 100.0" Properties=species:S:1:pos:R:3 Energy=-322833.5751052181 Energy_pyscf=-322828.8587321964 Energy_pyscf_og=-322833.18581692444 pbc="F F F"
C       46.11290022      50.77801537      49.82535045
C       47.57685878      50.53603619      50.29895052
O       47.73110217      50.56143479      51.50919126
N       48.62388090      50.15962591      49.40030916
C       50.08253886      50.08030677      49.67668779
C       50.80181089      49.25541485      48.76252678
C       52.15795496      49.09877794      48.96247953
C       52.82412277      49.77955459      49.97212326
O       54.22821193      49.46434109      50.12192910
C       52.06503350      50.59488848      50.83776726
C       50.70360684      50.82439775      50.61631828
H       45.81993207      50.12217690      49.07561909
H       46.15029400      51.86071769      49.62353362
H       45.44341470      50.70307683      50.67854300
H       48.37287003      50.42063716      48.41270463
H       50.26846272      48.64807337      48.04025262
H       52.74638531      48.53828187      48.28577979
H       54.69455896      50.17935119      50.52715871
H       52.64626762      51.13336389      51.67970420
H       50.26978884      51.59253732      51.24659849
