20
Lattice="100.0 0.0 0.0 0.0 100.0 0.0 0.0 0.0 100.0" Properties=species:S:1:pos:R:3 Energy=-322814.02123226534 Energy_pyscf=-322812.1789731848 Energy_pyscf_og=-322813.64238114795 pbc="F F F"
C       46.14979089      50.41011974      50.13403074
C       47.63022203      50.74563285      50.62498744
O       48.02853912      51.44339419      51.54988350
N       48.65672835      50.25757735      49.64686524
C       49.95610420      50.01393976      49.81444683
C       50.63240228      49.21741956      48.80963165
C       52.00799987      49.22573433      48.90246111
C       52.71548613      49.82705691      50.01657699
O       54.11396732      49.60441868      50.24112142
C       51.98435339      50.52566883      51.02437040
C       50.60218527      50.47978448      50.94448980
H       45.57094121      51.31160553      50.03409276
H       45.65619275      49.81070027      50.96345075
H       46.11411387      49.92023789      49.23491511
H       48.33033033      50.09926141      48.71178829
H       50.13367962      49.08251873      47.79439317
H       52.65761896      48.84521449      48.18410041
H       54.26358070      48.81768720      49.76059346
H       52.49226407      50.79138308      51.85372298
H       50.13999848      50.88024530      51.87664033
