20
Lattice="100.0 0.0 0.0 0.0 100.0 0.0 0.0 0.0 100.0" Properties=species:S:1:pos:R:3 Energy=-322826.9742269361 Energy_pyscf=-322826.67146663554 Energy_pyscf_og=-322826.5980956116 pbc="F F F"
C       46.32903070      50.63868799      50.30145672
C       47.78198535      50.66126377      50.76867931
O       48.24114673      50.80323812      51.91136466
N       48.66249639      50.32645622      49.69530362
C       50.04866843      50.17719221      49.87561094
C       50.85018759      49.41212658      48.92320641
C       52.25002355      49.12045377      49.09076649
C       52.92318576      49.63815429      50.29488730
O       54.18180133      49.34415401      50.50552877
C       52.11222248      50.42987558      51.25281082
C       50.77553163      50.63631783      51.02668261
H       46.33716576      51.22003233      49.43146808
H       45.70797157      50.89006180      51.10553858
H       46.05764842      49.61129288      49.99058707
H       48.29939619      49.96020831      48.87967354
H       50.42887170      48.94244638      47.95647392
H       52.68960407      48.37556998      48.44906441
H       54.33162549      49.76684735      51.38189219
H       52.75845277      51.03921889      51.87387422
H       50.18581217      51.34692757      51.66966120
