20
Lattice="100.0 0.0 0.0 0.0 100.0 0.0 0.0 0.0 100.0" Properties=species:S:1:pos:R:3 Energy=-322818.94574373454 Energy_pyscf=-322820.9331429958 Energy_pyscf_og=-322818.5633700836 pbc="F F F"
C       46.33571576      50.33791454      50.48555859
C       47.84864195      50.71554208      50.10918102
O       48.07358683      51.85540000      49.87483088
N       48.78629679      49.68396236      49.99391709
C       50.18538913      49.66254339      49.86129824
C       50.87133867      48.68862326      49.06677078
C       52.26711746      48.76536269      49.03455500
C       53.05599701      49.69999088      49.62221187
O       54.44839323      49.68428064      49.36196126
C       52.45526432      50.48059355      50.65850786
C       51.01645137      50.52618305      50.64224132
H       45.77740267      51.24701952      50.06036872
H       46.12287494      50.28174802      51.58436009
H       45.83382143      49.54420544      49.99367427
H       48.32726690      48.80407720      49.95474077
H       50.29503847      47.96390215      48.45001367
H       52.63848631      47.97834023      48.43724861
H       54.64351799      50.20893414      48.56110106
H       53.03359289      51.21658448      51.10102378
H       50.52121929      51.17275229      51.46983787
