20
Lattice="100.0 0.0 0.0 0.0 100.0 0.0 0.0 0.0 100.0" Properties=species:S:1:pos:R:3 Energy=-322819.49787703855 Energy_pyscf=-322819.68221161375 Energy_pyscf_og=-322819.1102086866 pbc="F F F"
C       46.31012907      50.38061871      49.86596886
C       47.80860895      50.50596165      50.40920582
O       48.18183010      51.42285113      51.08054519
N       48.64136898      49.58791673      49.92209081
C       50.13097372      49.68184900      49.91940215
C       50.94078960      49.12614160      48.91420463
C       52.25449619      48.99796286      48.92382224
C       52.98301090      49.63048816      49.89632774
O       54.33548369      49.54266231      49.88956814
C       52.30481874      50.24928287      50.92949772
C       50.87045882      50.29060657      50.95072884
H       46.34229463      50.79346719      48.80397207
H       45.61818477      50.85172048      50.53272199
H       46.03971367      49.32782586      49.76983530
H       48.21398257      48.89881285      49.35427026
H       50.44034619      48.72261956      48.01309127
H       52.65861724      48.65951105      48.06885349
H       54.58966990      50.44566268      49.70993330
H       52.97034265      50.71748048      51.71936118
H       50.48712773      50.60165546      52.02311659
