20
Lattice="100.0 0.0 0.0 0.0 100.0 0.0 0.0 0.0 100.0" Properties=species:S:1:pos:R:3 Energy=-322832.60902603884 Energy_pyscf=-322832.0909635565 Energy_pyscf_og=-322832.2338757269 pbc="F F F"
C       46.37333638      50.65671012      50.22230790
C       47.85437868      50.54008815      50.78440642
O       48.08368602      50.82857759      51.96649976
N       48.70290042      50.26095366      49.78789317
C       50.13091530      50.22714432      49.90105023
C       50.78117767      49.48396192      48.96597569
C       52.13599274      49.16961182      49.06777102
C       52.88988572      49.65317899      50.24435621
O       54.27055480      49.32745586      50.42605978
C       52.22608113      50.52968987      51.09865952
C       50.82370989      50.74228290      51.02873003
H       46.42444027      51.21166765      49.31495502
H       45.60301363      51.03597223      50.93992986
H       46.03142867      49.62635843      49.92116806
H       48.24250921      49.65780772      49.14811572
H       50.38117853      49.03064495      48.05312480
H       52.65397804      48.44434576      48.45054521
H       54.48107304      49.61997635      51.36959456
H       52.66529331      51.10733316      51.90908890
H       50.21362347      51.20848135      51.84984481
