20
Lattice="100.0 0.0 0.0 0.0 100.0 0.0 0.0 0.0 100.0" Properties=species:S:1:pos:R:3 Energy=-322830.3437784683 Energy_pyscf=-322829.43586529046 Energy_pyscf_og=-322829.96565164614 pbc="F F F"
C       46.05297802      50.44500180      49.96955696
C       47.54626968      50.58411445      50.37938547
O       47.90960732      51.49377031      51.13843026
N       48.42693571      49.60177987      49.80704422
C       49.99017376      49.59481831      49.94746128
C       50.60141119      48.80869160      48.94113800
C       52.01789595      49.00562072      48.82356169
C       52.75650701      49.70506616      49.78812732
O       54.15935889      49.74464570      49.66322577
C       52.13074535      50.28312854      50.89122717
C       50.72577343      50.36324141      50.95042202
H       45.54060272      51.15397807      50.60837167
H       45.70814397      49.42122253      50.01679829
H       45.95343752      50.88211890      48.92278567
H       48.13826539      49.17126845      48.91347140
H       49.96738850      48.07454981      48.38458803
H       52.64740115      48.50216995      48.05014029
H       54.60946252      49.25822871      48.96906213
H       52.81446422      50.75780109      51.61979250
H       50.28012245      51.06479160      51.63280734
