20
Lattice="100.0 0.0 0.0 0.0 100.0 0.0 0.0 0.0 100.0" Properties=species:S:1:pos:R:3 Energy=-322828.4036346281 Energy_pyscf=-322826.61684438464 Energy_pyscf_og=-322828.02968782216 pbc="F F F"
C       46.49881385      51.17693878      50.06622282
C       47.74035216      50.30626993      49.89238561
O       47.53791219      49.03969197      49.81996643
N       48.94339154      50.96005090      49.99234342
C       50.25109806      50.41259388      49.74944311
C       50.60163094      49.04115654      49.60020192
C       51.97527330      48.62999021      49.54186834
C       53.05508859      49.63127446      49.59463652
O       54.35132600      49.20079420      49.69747218
C       52.74619657      50.99713851      49.63527804
C       51.34071879      51.36674386      49.69932472
H       46.42490127      51.56295752      49.04258085
H       46.45887161      52.02534690      50.73138715
H       45.54735104      50.52976752      50.03039518
H       48.82037073      51.93336994      49.71120208
H       49.79923015      48.26747949      49.90488691
H       52.19576783      47.47923111      49.62295853
H       54.50301153      48.29750585      49.97383360
H       53.64019809      51.72381409      49.50865632
H       51.08494575      52.44378490      49.75252265
