20
Lattice="100.0 0.0 0.0 0.0 100.0 0.0 0.0 0.0 100.0" Properties=species:S:1:pos:R:3 Energy=-322832.8542345639 Energy_pyscf=-322830.5960799407 Energy_pyscf_og=-322832.4760960688 pbc="F F F"
C       46.19107011      50.84297452      50.33143444
C       47.66066651      50.53735227      50.70681643
O       47.88335925      50.19026833      51.85326852
N       48.59878205      50.49990885      49.66491411
C       50.01615212      50.32908321      49.80595657
C       50.67310676      49.49724062      48.89815849
C       52.00869825      49.05388497      49.14737084
C       52.74171927      49.65465361      50.26093798
O       54.08877579      49.49273472      50.28544303
C       52.09461606      50.66068476      51.02131696
C       50.74908872      51.01569070      50.85509863
H       45.81743401      49.77976745      50.21343326
H       46.01923279      51.21278645      49.35853103
H       45.69713444      51.59432140      50.99305372
H       48.18789103      50.77507775      48.79235356
H       50.07590654      49.01232275      48.11723599
H       52.46991266      48.26784974      48.51386931
H       54.52284147      48.83509232      49.67659834
H       52.71979972      51.31465910      51.66508305
H       50.14655601      51.66655295      51.55978181
