20
Lattice="100.0 0.0 0.0 0.0 100.0 0.0 0.0 0.0 100.0" Properties=species:S:1:pos:R:3 Energy=-322831.606183331 Energy_pyscf=-322825.0448922895 Energy_pyscf_og=-322831.2199383321 pbc="F F F"
C       46.17937527      50.91896204      49.99506944
C       47.59279683      50.63801309      50.45351749
O       47.96281937      51.24787424      51.49507585
N       48.51962730      49.85674790      49.68621099
C       49.83798297      49.68590795      49.84962688
C       50.61557092      49.05012966      48.89909689
C       52.04152827      48.95939801      49.06076291
C       52.73885355      49.64681682      50.04706275
O       54.19140736      49.60468145      50.08815646
C       51.95580236      50.50273389      50.88312149
C       50.57775872      50.39612633      50.88630569
H       46.08872755      51.75069691      49.23411031
H       45.51989136      50.86292948      50.84763539
H       45.87686396      50.01019023      49.30420472
H       47.98925939      49.32924563      48.97688159
H       50.30533326      48.56981605      47.99932028
H       52.67602710      48.51371574      48.32989512
H       54.45674716      50.54684843      50.20280649
H       52.56444087      51.01064956      51.71860096
H       49.99014837      50.83806973      51.63144260
