20
Lattice="100.0 0.0 0.0 0.0 100.0 0.0 0.0 0.0 100.0" Properties=species:S:1:pos:R:3 Energy=-322829.52237532503 Energy_pyscf=-322829.8023045686 Energy_pyscf_og=-322829.13884717866 pbc="F F F"
C       46.29138658      50.60908614      50.30013947
C       47.74367304      50.64134231      50.69267654
O       48.08984079      50.92562659      51.85747089
N       48.71630476      50.40269224      49.72573838
C       50.10037274      50.17775941      49.93410378
C       50.86144466      49.41826353      48.98366941
C       52.20666616      49.18187269      49.20230897
C       52.89793333      49.72975603      50.34004345
O       54.26876336      49.59525771      50.33569641
C       52.15932744      50.48214994      51.15794610
C       50.80098317      50.73729028      50.97917178
H       46.31356062      51.12126473      49.20072076
H       45.67312594      50.97312024      51.11324465
H       45.92263346      49.51622495      50.18876819
H       48.49396891      49.86605072      48.86693145
H       50.40991768      49.00952358      48.11435747
H       52.69746321      48.49475923      48.53266622
H       54.47477080      49.28091047      51.21283710
H       52.60272902      50.86501503      51.99589952
H       50.22801911      51.28457554      51.68996094
