20
Lattice="100.0 0.0 0.0 0.0 100.0 0.0 0.0 0.0 100.0" Properties=species:S:1:pos:R:3 Energy=-322830.274079822 Energy_pyscf=-322829.9810934044 Energy_pyscf_og=-322829.8893717034 pbc="F F F"
C       46.11594048      50.74623452      50.21110488
C       47.58223725      50.66614881      50.72031279
O       47.84667820      50.56987906      51.90414012
N       48.62361024      50.51894970      49.74345495
C       49.99393754      50.37449237      49.89965564
C       50.60043148      49.47335496      48.98909772
C       51.95947141      49.28298176      49.10776859
C       52.68401216      49.73316402      50.20448308
O       54.05482003      49.34370186      50.22254846
C       52.14802953      50.64071353      51.10298388
C       50.77112890      50.84034237      50.97447328
H       45.65590717      49.76609587      50.39688886
H       46.11739199      51.02435729      49.11644443
H       45.60558284      51.51441749      50.84243180
H       48.36099639      50.61237098      48.76590289
H       50.12426410      49.02136737      48.07147563
H       52.46294549      48.40531988      48.62937269
H       54.37853857      48.97747928      49.43338070
H       52.86187436      51.12597422      51.71669990
H       50.39029250      51.55303527      51.64283902
