20
Lattice="100.0 0.0 0.0 0.0 100.0 0.0 0.0 0.0 100.0" Properties=species:S:1:pos:R:3 Energy=-322823.5620623556 Energy_pyscf=-322821.8583841453 Energy_pyscf_og=-322823.174486138 pbc="F F F"
C       46.40354732      51.02179192      49.99482074
C       47.76908220      50.52061995      50.39763951
O       47.99676030      50.54067900      51.61349750
N       48.68432812      50.04421713      49.51704176
C       50.12018196      49.91229022      49.83091563
C       50.82765459      49.10126545      48.95760536
C       52.26699013      48.98221647      49.03490928
C       53.01634626      49.68871358      50.03414139
O       54.36752223      49.47731683      50.15845470
C       52.27197616      50.54020569      50.97430034
C       50.95925022      50.66577352      50.81109402
H       46.14271028      51.31488682      49.05499358
H       46.23907415      51.93677588      50.56164645
H       45.82274452      50.19598020      50.45888918
H       48.35009408      50.11440753      48.57177497
H       50.28254587      48.40747160      48.32275335
H       52.84667770      48.24858719      48.50596637
H       54.55963018      49.94024945      50.94886589
H       52.85110840      51.15561209      51.59702276
H       50.31603336      51.19830349      51.49463311
