9
Lattice="100.0 0.0 0.0 0.0 100.0 0.0 0.0 0.0 100.0" Properties=species:S:1:pos:R:3 Energy=-167294.8125 Energy_pyscf=-167287.89058403953 Energy_nn=-167294.953125 pbc="F F F"
C       49.41044939      48.96159802      50.94679366
C       49.38207961      49.68564041      49.58735689
C       50.65480827      50.43591615      49.18552998
O       50.56603450      51.25893009      48.35325284
O       50.32019465      48.50839924      51.80445912
H       48.42153856      48.65430395      51.26015840
H       49.33567677      48.81514301      48.99387019
H       48.35357777      50.06841050      49.56793159
H       51.64026402      49.97782907      49.33527197
