9
Lattice="100.0 0.0 0.0 0.0 100.0 0.0 0.0 0.0 100.0" Properties=species:S:1:pos:R:3 Energy=-167302.421875 Energy_pyscf=-167303.1899743883 Energy_nn=-167302.6875 pbc="F F F"
C       50.33106250      49.49043905      51.20690641
C       49.88203651      49.97493757      49.77026091
C       50.71956608      51.17877224      49.37682896
O       50.87310082      51.48983033      48.24737999
O       50.23484117      48.34119396      51.54745019
H       50.66703893      50.42090800      51.95133093
H       49.97825168      48.96245967      49.18598770
H       48.82085291      50.40627521      49.81705415
H       51.21772857      51.70174668      50.14991919
