9
Lattice="100.0 0.0 0.0 0.0 100.0 0.0 0.0 0.0 100.0" Properties=species:S:1:pos:R:3 Energy=-167313.359375 Energy_pyscf=-167310.7860518615 Energy_nn=-167312.296875 pbc="F F F"
C       50.47431990      49.58925601      51.20858181
C       49.45016556      50.43896674      50.51881802
C       49.94238532      51.02142931      49.13725696
O       50.95429036      51.68588464      49.12459851
O       50.22888578      48.53119998      51.69485916
H       51.45915793      50.10102375      51.44291459
H       48.54190245      49.77306718      50.39492972
H       49.27266196      51.37440350      51.10007425
H       49.14571533      51.03838061      48.23186820
