9
Lattice="100.0 0.0 0.0 0.0 100.0 0.0 0.0 0.0 100.0" Properties=species:S:1:pos:R:3 Energy=-167284.8125 Energy_pyscf=-167276.6277197456 Energy_nn=-167285.6875 pbc="F F F"
C       50.05161277      49.03205206      50.92456510
C       49.54469853      49.70499946      49.78364423
C       50.68858649      50.34286831      48.91665717
O       51.23481506      51.43003575      48.76051261
O       50.92749374      48.32443523      50.88178046
H       49.21958771      48.98499540      51.91344276
H       49.33668707      48.94459236      49.11604680
H       48.71220245      50.54688197      49.82446031
H       51.37941464      49.47348324      48.42824900
