9
Lattice="100.0 0.0 0.0 0.0 100.0 0.0 0.0 0.0 100.0" Properties=species:S:1:pos:R:3 Energy=-167275.84375 Energy_pyscf=-167286.0717796488 Energy_nn=-167283.09375 pbc="F F F"
C       49.94527552      49.20893377      50.99818307
C       49.78990523      49.61721442      49.59023534
C       50.27281645      50.98091243      49.09429149
O       50.90986854      50.95357550      48.05296641
O       50.66966866      48.29743040      51.23557128
H       49.35919025      49.89940087      51.85626125
H       50.67121570      49.19086418      48.98414325
H       48.94617387      49.27586794      49.20518475
H       49.84756394      51.77961558      49.69893948
