9
Lattice="100.0 0.0 0.0 0.0 100.0 0.0 0.0 0.0 100.0" Properties=species:S:1:pos:R:3 Energy=-167310.078125 Energy_pyscf=-167307.2362482637 pbc="F F F"
C       50.49257902      49.72965560      51.48619783
C       49.59696755      50.28136660      50.36080901
C       50.37296293      50.62715559      49.11059496
O       51.40017837      51.31853624      49.22401417
O       50.64561875      48.57658545      51.71829207
H       51.20970396      50.46638228      51.85322769
H       48.73081807      49.46108671      50.19083904
H       49.05600211      51.29453910      50.58745564
H       49.94755893      50.25728720      48.08266512
