9
Lattice="100.0 0.0 0.0 0.0 100.0 0.0 0.0 0.0 100.0" Properties=species:S:1:pos:R:3 Energy=-167291.359375 Energy_pyscf=-167285.47075565805 Energy_nn=-167291.859375 pbc="F F F"
C       50.43306863      48.92128199      50.54982043
C       49.43691590      50.01599806      50.08934888
C       50.40842425      50.98983732      49.38747254
O       50.91129427      50.71029264      48.34137388
O       50.13776523      48.07994327      51.47351238
H       51.56380478      49.23918337      50.35710923
H       48.85762936      49.43009468      49.18317750
H       48.73772386      50.75377815      50.70260923
H       50.65102770      51.81316798      50.10331033
