9
Lattice="100.0 0.0 0.0 0.0 100.0 0.0 0.0 0.0 100.0" Properties=species:S:1:pos:R:3 Energy=-167298.578125 Energy_pyscf=-167297.4838362125 Energy_nn=-167298.75 pbc="F F F"
C       50.37704122      48.75318774      50.50621778
C       49.63080176      50.09448662      50.19852145
C       50.30258723      51.04091594      49.26595513
O       51.23848547      50.77483897      48.46377374
O       50.49001694      48.48496226      51.60982295
H       50.47768862      47.94411252      49.64395043
H       48.80983802      49.86906300      49.45094007
H       49.16343859      50.74113924      50.91729964
H       49.82493162      52.08566100      49.34061082
