9
Lattice="100.0 0.0 0.0 0.0 100.0 0.0 0.0 0.0 100.0" Properties=species:S:1:pos:R:3 Energy=-167294.09375 Energy_pyscf=-167285.97890012016 Energy_nn=-167295.234375 pbc="F F F"
C       50.43773095      49.69254699      51.50941384
C       49.51804899      50.11454798      50.17410159
C       50.45942245      50.52137435      49.01142891
O       51.49113889      51.20507489      49.19532110
O       50.70699224      48.63425590      51.67128504
H       50.70067649      50.61872177      52.21553070
H       48.72282359      49.43792683      49.95142160
H       48.73078911      50.96709215      50.54520204
H       50.40311158      50.10902196      47.99929608
