9
Lattice="100.0 0.0 0.0 0.0 100.0 0.0 0.0 0.0 100.0" Properties=species:S:1:pos:R:3 Energy=-167285.703125 Energy_pyscf=-167281.53988931968 Energy_nn=-167288.09375 pbc="F F F"
C       49.87074656      49.04140561      50.80425457
C       49.53821109      50.22931211      49.85055824
C       50.61566626      50.43581823      48.89023713
O       51.03090212      51.55551462      48.57968043
O       50.75545426      48.78496062      51.56547764
H       48.79573114      48.53313698      51.05607425
H       48.75057897      49.70517144      49.35721346
H       49.12678422      51.32772975      50.31658916
H       51.45655615      49.76106636      48.70720814
