9
Lattice="100.0 0.0 0.0 0.0 100.0 0.0 0.0 0.0 100.0" Properties=species:S:1:pos:R:3 Energy=-167297.25 Energy_pyscf=-167297.7796066291 Energy_nn=-167297.4375 pbc="F F F"
C       49.65067222      49.11515807      50.97689109
C       49.44291439      50.29805553      49.85183560
C       50.73930446      50.41831402      48.99449066
O       51.06775018      51.55353843      48.67639176
O       50.71322969      49.15015606      51.60428072
H       49.07958825      48.21589538      50.88774516
H       48.63807564      49.90387633      49.25985857
H       49.21184721      51.25392054      50.40269200
H       51.40416668      49.50287360      48.48698810
