9
Lattice="100.0 0.0 0.0 0.0 100.0 0.0 0.0 0.0 100.0" Properties=species:S:1:pos:R:3 Energy=-167290.328125 Energy_pyscf=-167298.03492632625 Energy_nn=-167290.3125 pbc="F F F"
C       49.94267021      49.16865078      51.25577007
C       49.58821682      50.34246440      50.40869205
C       50.59719906      50.77841348      49.19113174
O       51.22744899      51.80083000      49.35346602
O       51.09950745      49.10515693      51.73935169
H       49.13519044      48.54731983      51.67783177
H       48.61342358      50.36431187      50.08876375
H       49.73143184      51.18595700      51.05636332
H       50.49922317      50.00278285      48.21605849
