9
Lattice="100.0 0.0 0.0 0.0 100.0 0.0 0.0 0.0 100.0" Properties=species:S:1:pos:R:3 Energy=-167304.296875 Energy_pyscf=-167305.70767821418 Energy_nn=-167306.03125 pbc="F F F"
C       50.27815230      48.82481033      50.53034747
C       49.59339180      50.04871987      50.03281195
C       50.36970452      51.10937496      49.24190516
O       51.22869498      50.91685771      48.35395699
O       50.79120019      48.63666544      51.55946729
H       50.25376242      47.88408051      49.86907677
H       48.75187923      49.74033619      49.36228910
H       48.97462282      50.53489341      50.90415225
H       50.06514071      52.11705554      49.50825571
