9
Lattice="100.0 0.0 0.0 0.0 100.0 0.0 0.0 0.0 100.0" Properties=species:S:1:pos:R:3 Energy=-167281.765625 Energy_pyscf=-167281.99835389704 Energy_nn=-167285.609375 pbc="F F F"
C       50.61332897      49.16189756      50.69751353
C       49.40911457      49.99121227      49.95104489
C       50.07513126      50.90463848      49.04242559
O       51.16142131      50.54275034      48.60971758
O       50.46400569      48.29551998      51.53721706
H       51.65491534      49.84619270      50.79796926
H       49.27088992      49.33825788      49.11916561
H       48.36059385      50.02320632      50.52794662
H       49.57648592      51.80516126      48.91788285
