9
Lattice="100.0 0.0 0.0 0.0 100.0 0.0 0.0 0.0 100.0" Properties=species:S:1:pos:R:3 Energy=-167315.3125 Energy_pyscf=-167309.93572475904 Energy_nn=-167312.359375 pbc="F F F"
C       50.51855767      49.75114450      51.40873333
C       49.52454838      50.29684066      50.31701789
C       50.38689874      50.56999916      49.15229219
O       51.26673993      51.39518954      49.17695528
O       50.56600184      48.51103560      51.66140479
H       51.19290428      50.51561230      51.84615386
H       48.76095903      49.51876462      50.18326779
H       49.14671380      51.29221371      50.73881226
H       50.07620669      50.10824672      48.13333300
