9
Lattice="100.0 0.0 0.0 0.0 100.0 0.0 0.0 0.0 100.0" Properties=species:S:1:pos:R:3 Energy=-167300.234375 Energy_pyscf=-167302.38033992378 Energy_nn=-167299.796875 pbc="F F F"
C       49.55132546      49.27261056      50.81912476
C       49.29830094      50.20379533      49.68870870
C       50.67924244      51.01772114      49.54261704
O       51.00475292      51.60668956      48.48694501
O       50.59504574      49.23563070      51.49307158
H       48.83745695      48.35216420      50.83442838
H       49.02433110      49.64204695      48.84351881
H       48.27224888      50.73079583      49.78842161
H       51.39871003      51.01831228      50.38692032
