9
Lattice="100.0 0.0 0.0 0.0 100.0 0.0 0.0 0.0 100.0" Properties=species:S:1:pos:R:3 Energy=-167315.953125 Energy_pyscf=-167312.28093346304 Energy_nn=-167310.984375 pbc="F F F"
C       50.08776017      49.24337947      50.50888486
C       49.42099477      50.50932473      49.90417143
C       50.49793295      51.34967452      49.35221184
O       50.76913309      51.56725874      48.20489356
O       50.22335177      49.14239268      51.70512780
H       50.26152474      48.45897493      49.78624121
H       48.82410756      50.22150437      49.01614006
H       49.01514332      51.07479433      50.74501867
H       51.15873070      51.75807400      50.16698646
