9
Lattice="100.0 0.0 0.0 0.0 100.0 0.0 0.0 0.0 100.0" Properties=species:S:1:pos:R:3 Energy=-167283.34375 Energy_pyscf=-167270.25771083488 Energy_nn=-167285.1875 pbc="F F F"
C       49.91677770      48.58906063      50.75535887
C       49.68442533      49.73697094      50.00863553
C       50.62612951      50.86153844      49.58686852
O       51.31930751      50.50044718      48.50908569
O       50.80588226      48.24968786      51.58697178
H       48.94623404      48.25778309      51.07532564
H       49.27010293      49.62263410      48.95249181
H       48.79484524      50.31973989      50.48634981
H       50.53401069      51.94102751      49.94447049
