9
Lattice="100.0 0.0 0.0 0.0 100.0 0.0 0.0 0.0 100.0" Properties=species:S:1:pos:R:3 Energy=-167300.46875 Energy_pyscf=-167296.31020078118 pbc="F F F"
C       50.02853494      49.20756214      51.17766046
C       49.80487656      49.65626261      49.68937648
C       50.52294356      50.92170980      49.30094862
O       50.90392778      51.15291117      48.10720567
O       50.49879885      48.14138982      51.48517125
H       49.54417083      49.80927565      51.79529656
H       50.12400112      48.88757514      48.91695560
H       48.79525245      50.18042321      49.69065453
H       50.60425365      51.70244670      50.17283151
