9
Lattice="100.0 0.0 0.0 0.0 100.0 0.0 0.0 0.0 100.0" Properties=species:S:1:pos:R:3 Energy=-167277.0 Energy_pyscf=-167276.76422145183 Energy_nn=-167281.75 pbc="F F F"
C       50.36307829      48.81583756      50.66461514
C       49.60290148      50.07454815      50.04347476
C       50.28178409      51.00924843      49.21299187
O       51.19619104      51.04732580      48.32187626
O       50.30969872      48.34662958      51.73515626
H       50.55467590      48.08664546      49.55604441
H       48.71747822      49.53524475      49.59085924
H       49.24019946      50.83966179      50.86805161
H       50.04844383      52.03633128      49.37660131
