9
Lattice="100.0 0.0 0.0 0.0 100.0 0.0 0.0 0.0 100.0" Properties=species:S:1:pos:R:3 Energy=-167306.28125 Energy_pyscf=-167303.07528072633 pbc="F F F"
C       50.01299839      49.19435617      51.19918724
C       49.50442686      50.46181479      50.44990381
C       50.54922596      50.76230486      49.23142992
O       51.33741311      51.63907708      49.38448554
O       51.17097171      49.13961863      51.70924919
H       49.25688601      48.42349291      51.48870238
H       48.36278173      50.32523960      50.16610950
H       49.64390563      51.41062405      50.96523990
H       50.59659845      49.94123799      48.40823785
