9
Lattice="100.0 0.0 0.0 0.0 100.0 0.0 0.0 0.0 100.0" Properties=species:S:1:pos:R:3 Energy=-167277.828125 Energy_pyscf=-167282.61911617653 Energy_nn=-167282.65625 pbc="F F F"
C       49.88196075      49.17462630      50.61690688
C       49.44497884      50.29450174      49.87887432
C       50.68335652      51.27752444      49.31599262
O       50.55500090      51.92527083      48.31964781
O       50.28767958      49.21323444      51.83579698
H       49.54029956      48.10109770      50.18586476
H       48.53985234      50.45526627      49.09095055
H       49.26392759      51.01925677      50.73523330
H       51.52200341      51.44303577      49.82942018
