9
Lattice="100.0 0.0 0.0 0.0 100.0 0.0 0.0 0.0 100.0" Properties=species:S:1:pos:R:3 Energy=-167277.921875 Energy_pyscf=-167281.12529158272 Energy_nn=-167283.296875 pbc="F F F"
C       50.02329580      49.31287479      51.19982452
C       49.59636053      50.41274916      50.38641392
C       50.65481828      50.65645094      49.29178138
O       51.47299397      51.58741552      49.44272286
O       51.04456472      49.19101060      51.68538682
H       49.33635684      48.59027249      51.57190021
H       48.36761065      50.24476990      50.11469404
H       49.55306271      51.21381132      51.03353064
H       50.40629735      50.09326182      48.26047064
