9
Lattice="100.0 0.0 0.0 0.0 100.0 0.0 0.0 0.0 100.0" Properties=species:S:1:pos:R:3 Energy=-167287.90625 Energy_pyscf=-167291.32865033345 Energy_nn=-167288.8125 pbc="F F F"
C       50.04071888      49.03191110      50.55713709
C       49.61978087      50.33929962      49.89218003
C       50.48802009      50.65527753      48.87984830
O       50.50129121      51.69394967      48.17464220
O       49.82603991      48.82813729      51.71440320
H       50.25067101      48.14559605      49.81488541
H       48.53440108      50.00538817      49.55829406
H       49.25836597      50.95748584      50.77259102
H       51.27008892      49.99069625      48.78970391
