9
Lattice="100.0 0.0 0.0 0.0 100.0 0.0 0.0 0.0 100.0" Properties=species:S:1:pos:R:3 Energy=-167302.046875 Energy_pyscf=-167289.9840524154 pbc="F F F"
C       49.41520159      49.04372368      50.85604923
C       49.32489760      49.55029950      49.45379604
C       50.67260696      50.33524016      49.27711891
O       50.63117186      51.47582738      48.72057514
O       50.39493172      48.95150889      51.45989623
H       48.44030868      48.93236420      51.56439945
H       49.21138605      48.60623389      48.87035479
H       48.37847263      50.32379538      49.55962493
H       51.61675317      49.77730423      49.30565219
