9
Lattice="100.0 0.0 0.0 0.0 100.0 0.0 0.0 0.0 100.0" Properties=species:S:1:pos:R:3 Energy=-167316.28125 Energy_pyscf=-167311.75309894542 Energy_nn=-167313.390625 pbc="F F F"
C       49.41606765      49.02718034      50.98549353
C       49.30332723      49.64309187      49.61734684
C       50.60030938      50.33621508      49.16906457
O       50.70913299      51.13840752      48.29940446
O       50.54873062      48.71538479      51.35290393
H       48.44998581      48.80154968      51.51139712
H       49.10761208      48.91192985      48.79406429
H       48.50087368      50.33433396      49.58610091
H       51.47727004      50.09571703      49.77252289
