9
Lattice="100.0 0.0 0.0 0.0 100.0 0.0 0.0 0.0 100.0" Properties=species:S:1:pos:R:3 Energy=-167294.625 Energy_pyscf=-167293.19000667203 Energy_nn=-167295.609375 pbc="F F F"
C       50.33333514      49.64425916      51.21992869
C       49.80965673      50.01833519      49.87596018
C       50.75541195      51.09696687      49.43053417
O       50.98692138      51.25401113      48.22283112
O       50.69269440      48.37570965      51.39832143
H       50.32232851      50.40429276      51.98362041
H       49.79345085      49.10767236      49.10214131
H       48.78389526      50.46288207      49.81339117
H       51.25455759      51.56855489      50.21773403
