9
Lattice="100.0 0.0 0.0 0.0 100.0 0.0 0.0 0.0 100.0" Properties=species:S:1:pos:R:3 Energy=-167313.3125 Energy_pyscf=-167307.01937164328 Energy_nn=-167311.796875 pbc="F F F"
C       49.35599681      48.94825528      50.95506707
C       49.38734563      49.46147899      49.58637246
C       50.62997934      50.34270430      49.26157065
O       50.46772117      51.41814868      48.65682095
O       50.34594206      48.60684503      51.52309694
H       48.37130684      48.99275750      51.41276286
H       49.44020915      48.62745773      48.90755317
H       48.39798949      50.03692720      49.47640939
H       51.70604940      49.93104264      49.25075461
