9
Lattice="100.0 0.0 0.0 0.0 100.0 0.0 0.0 0.0 100.0" Properties=species:S:1:pos:R:3 Energy=-167303.484375 Energy_pyscf=-167298.1400106795 Energy_nn=-167302.984375 pbc="F F F"
C       50.50063206      49.28166626      50.88262657
C       49.47965547      49.75128540      49.91333493
C       50.19118437      50.83695199      49.01828761
O       51.25130918      50.94048425      48.50562865
O       50.35252887      48.28818721      51.60141099
H       51.51319577      49.72993132      50.73822942
H       49.12968303      49.14607793      49.06726212
H       48.71177471      50.15748597      50.53555306
H       49.43713660      51.78524059      48.94943556
