9
Lattice="100.0 0.0 0.0 0.0 100.0 0.0 0.0 0.0 100.0" Properties=species:S:1:pos:R:3 Energy=-167305.234375 Energy_pyscf=-167308.89152455944 Energy_nn=-167306.890625 pbc="F F F"
C       49.45198284      49.02014015      51.02282359
C       49.31966623      49.67493369      49.60854583
C       50.61778752      50.39518814      49.16744242
O       50.64022722      51.43137082      48.53156938
O       50.38952912      48.51679668      51.53295999
H       48.46425831      48.95363807      51.55629758
H       49.26390214      48.79810033      49.01664474
H       48.42226222      50.28066779      49.29077122
H       51.53919158      49.92331948      49.35358020
