9
Lattice="100.0 0.0 0.0 0.0 100.0 0.0 0.0 0.0 100.0" Properties=species:S:1:pos:R:3 Energy=-167299.90625 Energy_pyscf=-167295.31920219283 pbc="F F F"
C       50.06560298      49.02357243      50.99696883
C       49.57839208      49.79072425      49.79481006
C       50.76302449      50.38926728      48.87790098
O       51.44794862      51.39977644      48.77410064
O       51.13152964      48.51788238      51.09351818
H       49.10362402      48.92292626      51.59042820
H       49.28117851      48.89713681      49.22250211
H       48.62222828      50.45137286      49.89582115
H       51.10776240      49.40563089      48.33563211
