9
Lattice="100.0 0.0 0.0 0.0 100.0 0.0 0.0 0.0 100.0" Properties=species:S:1:pos:R:3 Energy=-167298.28125 Energy_pyscf=-167280.11004935057 pbc="F F F"
C       50.56402088      49.56999445      51.33563135
C       49.45554092      50.25981394      50.23562728
C       50.48773246      50.54225744      49.20421659
O       51.23632787      51.55078788      49.31119699
O       50.48422602      48.50982807      51.90964719
H       50.84499298      50.58036709      51.59289893
H       48.92436445      49.47475040      49.74386394
H       48.74141467      50.97849653      50.66539416
H       50.39451856      49.81836528      48.30036461
