9
Lattice="100.0 0.0 0.0 0.0 100.0 0.0 0.0 0.0 100.0" Properties=species:S:1:pos:R:3 Energy=-167288.46875 Energy_pyscf=-167292.0875407085 Energy_nn=-167289.703125 pbc="F F F"
C       50.11595950      49.22056558      50.73079176
C       49.65935877      49.73140291      49.33665194
C       50.56799664      50.95507147      48.99481351
O       51.53001565      51.05097947      48.21370180
O       50.51365055      48.03256341      50.87639925
H       50.02910116      49.74066604      51.76837418
H       49.97470841      48.77349653      48.92394135
H       48.64006194      49.86185215      49.09730617
H       50.41519077      51.62137776      49.79475371
