9
Lattice="100.0 0.0 0.0 0.0 100.0 0.0 0.0 0.0 100.0" Properties=species:S:1:pos:R:3 Energy=-167314.625 Energy_pyscf=-167312.63908052846 Energy_nn=-167312.0 pbc="F F F"
C       49.46027253      49.01682187      50.94978564
C       49.34442940      49.74973539      49.66132980
C       50.63294770      50.39518873      49.19651981
O       50.65315843      51.29719794      48.36020685
O       50.48706371      48.69181869      51.42682634
H       48.44089667      48.84191095      51.37653561
H       49.15413947      48.83950689      48.98781786
H       48.38272518      50.28460952      49.51437818
H       51.52689586      49.89602556      49.59779395
