9
Lattice="100.0 0.0 0.0 0.0 100.0 0.0 0.0 0.0 100.0" Properties=species:S:1:pos:R:3 Energy=-167311.3125 Energy_pyscf=-167309.7098924519 Energy_nn=-167312.15625 pbc="F F F"
C       50.35944530      49.01031106      50.81158095
C       49.25842542      49.78328464      50.14642100
C       49.92420514      50.87843059      49.17669009
O       50.79164202      50.56330517      48.37053616
O       50.17288581      47.94836208      51.32973580
H       51.41520089      49.33234496      50.64395503
H       48.74574256      49.01389452      49.53722447
H       48.52989938      50.28534261      50.75833842
H       49.66343449      52.01049032      49.34730179
