9
Lattice="100.0 0.0 0.0 0.0 100.0 0.0 0.0 0.0 100.0" Properties=species:S:1:pos:R:3 Energy=-167314.078125 Energy_pyscf=-167308.61438301002 Energy_nn=-167310.9375 pbc="F F F"
C       49.43819694      48.94511836      50.87189268
C       49.32409833      49.69229300      49.62984613
C       50.62185785      50.27661689      49.12845487
O       50.70993933      51.10018355      48.20362498
O       50.49475279      48.59662449      51.36592167
H       48.51789741      48.80765831      51.50512649
H       48.96281765      48.88641545      48.95375568
H       48.54867471      50.41883245      49.52152574
H       51.46170098      50.27415732      49.89405652
