9
Lattice="100.0 0.0 0.0 0.0 100.0 0.0 0.0 0.0 100.0" Properties=species:S:1:pos:R:3 Energy=-167295.09375 Energy_pyscf=-167294.2512124956 Energy_nn=-167294.203125 pbc="F F F"
C       50.37573556      48.61244155      50.30596456
C       49.45189712      49.71151936      49.98974265
C       50.39547606      50.88034303      49.30663748
O       51.30273964      50.50480359      48.54092937
O       50.58051004      48.28895922      51.40965679
H       50.91007725      47.96324825      49.46655705
H       48.67906084      49.41680992      49.26283249
H       48.71807256      50.14705863      50.72623928
H       50.58889250      51.96223602      49.58598881
