9
Lattice="100.0 0.0 0.0 0.0 100.0 0.0 0.0 0.0 100.0" Properties=species:S:1:pos:R:3 Energy=-167305.609375 Energy_pyscf=-167304.93135505088 Energy_nn=-167304.984375 pbc="F F F"
C       50.31168294      48.52288305      50.40216510
C       49.48925264      49.81591003      49.95245543
C       50.43939121      50.78615210      49.32919566
O       51.10821820      50.50962254      48.27751366
O       50.40642503      48.26374945      51.56002849
H       50.94158440      48.20378214      49.41401334
H       48.89595150      49.28750140      49.16269428
H       48.86831366      50.25109795      50.77699358
H       50.51895558      51.87142501      49.72971777
