9
Lattice="100.0 0.0 0.0 0.0 100.0 0.0 0.0 0.0 100.0" Properties=species:S:1:pos:R:3 Energy=-167310.921875 Energy_pyscf=-167308.6878673859 pbc="F F F"
C       49.91499631      48.93677171      50.59092238
C       49.51584420      50.18504123      49.91318415
C       50.51134023      50.74825592      48.87370223
O       50.52457432      51.84433733      48.34383874
O       49.97025643      48.86485459      51.76625293
H       50.15072929      47.99476621      50.00269892
H       48.50003688      50.01218494      49.50378350
H       49.35490765      50.99338000      50.55451242
H       51.35524722      50.06668095      48.60718977
