9
Lattice="100.0 0.0 0.0 0.0 100.0 0.0 0.0 0.0 100.0" Properties=species:S:1:pos:R:3 Energy=-167280.171875 Energy_pyscf=-167264.6933363962 Energy_nn=-167283.484375 pbc="F F F"
C       50.00746843      49.24893427      51.18155249
C       49.90116056      49.78090944      49.49451922
C       50.74834773      51.13707553      49.17209014
O       51.22998864      51.44812613      48.23610737
O       50.77808840      48.37619265      51.59817389
H       49.52742694      49.91184399      51.79173285
H       50.30882297      48.97737293      48.96234950
H       48.80651708      49.79361847      49.05194264
H       51.34548946      51.53616277      50.10748568
