9
Lattice="100.0 0.0 0.0 0.0 100.0 0.0 0.0 0.0 100.0" Properties=species:S:1:pos:R:3 Energy=-167310.4375 Energy_pyscf=-167308.6322023936 Energy_nn=-167310.0625 pbc="F F F"
C       49.57873752      49.03162551      51.01722622
C       49.44281144      49.99361519      49.77932416
C       50.68000339      50.91524043      49.41731707
O       50.85048001      51.53247802      48.39636804
O       50.61405048      48.84175966      51.53126772
H       48.68243281      48.43055699      51.16485664
H       49.30895318      49.18077374      48.98836527
H       48.53122417      50.65930449      49.76228294
H       51.54466857      50.84132970      50.12853328
