9
Lattice="100.0 0.0 0.0 0.0 100.0 0.0 0.0 0.0 100.0" Properties=species:S:1:pos:R:3 Energy=-167313.234375 Energy_pyscf=-167309.93636716553 Energy_nn=-167311.625 pbc="F F F"
C       50.08655495      49.24363254      51.01368736
C       49.57675430      49.89979369      49.61594020
C       50.75044956      50.22476166      48.73477651
O       51.44999959      51.24329358      48.88952662
O       51.16402978      48.83332568      51.25808292
H       49.20594041      49.32216020      51.69851784
H       48.91939986      49.14798718      49.17216529
H       48.99350865      50.81911516      49.98658921
H       50.97451338      49.36018999      48.06660326
