9
Lattice="100.0 0.0 0.0 0.0 100.0 0.0 0.0 0.0 100.0" Properties=species:S:1:pos:R:3 Energy=-167309.5625 Energy_pyscf=-167305.16624224014 Energy_nn=-167308.84375 pbc="F F F"
C       50.28546527      48.85256987      50.48335490
C       49.53129012      50.06471200      50.12447649
C       50.38475746      51.03418122      49.16330836
O       51.37736468      50.89951994      48.54908260
O       50.53945417      48.51045024      51.64376066
H       50.44101257      48.08840838      49.60695686
H       48.64269759      49.59827983      49.57635985
H       49.25772021      50.76090621      50.89372840
H       49.87915517      52.04024762      49.37217130
