9
Lattice="100.0 0.0 0.0 0.0 100.0 0.0 0.0 0.0 100.0" Properties=species:S:1:pos:R:3 Energy=-167303.75 Energy_pyscf=-167303.12933184562 Energy_nn=-167304.3125 pbc="F F F"
C       49.51669946      49.07898626      50.78702552
C       49.42364900      50.16338543      49.76589748
C       50.63309167      51.03155602      49.52114948
O       50.78993954      51.40034264      48.35483310
O       50.39091382      49.04977488      51.57207063
H       48.75290734      48.18256749      50.91376301
H       49.18604057      49.78434606      48.80727515
H       48.59007870      50.99277090      49.85867854
H       51.39426817      51.45679694      50.31694028
