9
Lattice="100.0 0.0 0.0 0.0 100.0 0.0 0.0 0.0 100.0" Properties=species:S:1:pos:R:3 Energy=-167311.109375 Energy_pyscf=-167305.67079123802 pbc="F F F"
C       50.03820992      49.02235917      50.56228222
C       49.45937746      50.23612266      49.98996510
C       50.47967131      50.71077226      48.92765636
O       50.46586213      51.76078970      48.29380684
O       50.16224857      48.80869836      51.76401548
H       50.01786784      48.11386894      49.87029364
H       48.63933972      49.99326291      49.31230119
H       49.22654749      51.07594102      50.64362160
H       51.36936083      49.90903434      48.80060271
