9
Lattice="100.0 0.0 0.0 0.0 100.0 0.0 0.0 0.0 100.0" Properties=species:S:1:pos:R:3 Energy=-167289.40625 Energy_pyscf=-167284.56810532583 Energy_nn=-167290.3125 pbc="F F F"
C       50.37396778      48.78657007      50.58864318
C       49.61920214      50.08656623      50.15046166
C       50.18890122      51.09687091      49.17844311
O       51.02089144      50.71026278      48.26872864
O       50.50020086      48.29365498      51.72124899
H       50.62428392      48.11902540      49.71666819
H       48.87220802      49.89421387      49.34819228
H       48.96603349      50.77152058      50.90668533
H       50.12292612      52.04788329      49.50383035
