9
Lattice="100.0 0.0 0.0 0.0 100.0 0.0 0.0 0.0 100.0" Properties=species:S:1:pos:R:3 Energy=-167310.453125 Energy_pyscf=-167307.609077233 Energy_nn=-167309.390625 pbc="F F F"
C       50.08606267      49.03962762      50.79164928
C       49.87983306      50.40340988      50.20684735
C       50.58844300      50.81015252      48.92962269
O       50.90177542      51.91080112      48.67450643
O       50.68190535      48.82430446      51.91714107
H       49.58397534      48.16805707      50.32574571
H       48.80433561      50.50367699      49.94725754
H       50.11517433      51.17574402      50.91943732
H       50.60969851      49.95732335      48.11462554
