9
Lattice="100.0 0.0 0.0 0.0 100.0 0.0 0.0 0.0 100.0" Properties=species:S:1:pos:R:3 Energy=-167298.40625 Energy_pyscf=-167296.929592704 Energy_nn=-167298.328125 pbc="F F F"
C       50.38343185      49.67037928      51.25933110
C       49.35587287      50.51809839      50.45259116
C       49.98604762      51.04323131      49.28421292
O       51.11654215      51.51053241      49.08932327
O       50.47192194      48.46043881      51.39911633
H       51.37330169      50.16898802      51.39974435
H       48.44847175      49.95124982      50.53273027
H       49.09094057      51.36118269      51.12456992
H       49.21302596      50.84878143      48.34513593
