9
Lattice="100.0 0.0 0.0 0.0 100.0 0.0 0.0 0.0 100.0" Properties=species:S:1:pos:R:3 Energy=-167307.203125 Energy_pyscf=-167305.88694333594 pbc="F F F"
C       50.00627721      49.34033548      50.49404346
C       49.34249626      50.42306474      49.90267834
C       50.53465898      51.28360991      49.42224277
O       50.70468366      51.55375804      48.29653935
O       50.36893886      49.33435024      51.67319262
H       50.40269291      48.49682529      49.77481860
H       48.70144803      50.32429801      48.95519980
H       48.84824821      51.02086082      50.63284811
H       51.35270782      51.50185617      50.21979284
