9
Lattice="100.0 0.0 0.0 0.0 100.0 0.0 0.0 0.0 100.0" Properties=species:S:1:pos:R:3 Energy=-167307.046875 Energy_pyscf=-167305.71207025356 pbc="F F F"
C       50.29508356      48.86279386      50.49217575
C       49.57962844      50.03597272      50.03987632
C       50.40939405      51.11791735      49.27820108
O       51.47548704      50.81715792      48.78550424
O       50.87487954      48.57273159      51.49071752
H       50.11978646      48.05105165      49.69765268
H       48.62847200      49.72838102      49.54238544
H       49.04835112      50.54210064      50.92087257
H       49.86751124      52.07237207      49.15987584
