9
Lattice="100.0 0.0 0.0 0.0 100.0 0.0 0.0 0.0 100.0" Properties=species:S:1:pos:R:3 Energy=-97074.9765625 Energy_pyscf=-97071.70125520484 pbc="F F F"
C       49.91224995      50.36401238      50.81164135
C       49.36659354      49.70495703      49.48081944
O       50.67825504      49.36376809      51.60537275
H       50.38004205      51.24768514      50.53070939
H       49.03566552      50.62007254      51.43522060
H       48.28731322      50.02011598      49.20658741
H       49.85504871      50.36908814      48.67639337
H       49.56092406      48.59141428      49.37962624
H       51.60835325      49.41658678      51.15646494
