9
Lattice="100.0 0.0 0.0 0.0 100.0 0.0 0.0 0.0 100.0" Properties=species:S:1:pos:R:3 Energy=-97084.078125 Energy_pyscf=-97085.80527288071 Energy_nn=-97084.75 pbc="F F F"
C       50.19576605      50.28747314      50.75886393
C       49.72636919      49.83859513      49.40743831
O       51.19128616      49.43480602      51.25146926
H       50.60584299      51.37042858      50.77304284
H       49.29434907      50.34884075      51.39664822
H       48.92695705      50.43300884      48.93804299
H       50.62409264      49.87022278      48.68564249
H       49.25106519      48.84220288      49.49499423
H       50.86081850      48.51242550      51.06257196
