9
Lattice="100.0 0.0 0.0 0.0 100.0 0.0 0.0 0.0 100.0" Properties=species:S:1:pos:R:3 Energy=-97075.1015625 Energy_pyscf=-97072.88996882047 pbc="F F F"
C       49.71359806      49.97792280      50.60692847
C       49.24871405      49.70962885      49.27679394
O       50.67997933      49.16143868      51.28926378
H       50.11901134      51.02001072      50.68657367
H       48.85993431      49.90540304      51.42567559
H       48.97394805      50.54511760      48.65923520
H       50.09681400      49.42709554      48.62477517
H       48.42131274      49.01315445      49.31319184
H       51.44724447      49.34235744      50.77273226
