9
Lattice="100.0 0.0 0.0 0.0 100.0 0.0 0.0 0.0 100.0" Properties=species:S:1:pos:R:3 Energy=-97058.0625 Energy_pyscf=-97064.94985526333 Energy_nn=-97061.3671875 pbc="F F F"
C       50.08638838      50.21590503      50.19143722
C       49.59867496      49.67721484      48.83534066
O       51.03130530      49.17293440      50.72139899
H       50.66649586      51.27901985      50.34677503
H       49.23948681      50.10620545      50.83221621
H       48.99769123      48.92576509      49.25774771
H       48.95794694      50.27212389      48.30320391
H       50.49256635      49.37862804      48.31741118
H       50.92880816      49.17591807      51.63052964
