9
Lattice="100.0 0.0 0.0 0.0 100.0 0.0 0.0 0.0 100.0" Properties=species:S:1:pos:R:3 Energy=-97076.46875 Energy_pyscf=-97078.32908313119 Energy_nn=-97076.7890625 pbc="F F F"
C       50.08601289      50.19932354      50.78487622
C       49.51954408      49.79752888      49.33899044
O       50.88026853      49.21164445      51.34631501
H       50.49619448      51.20680768      50.74336821
H       49.12983058      50.26861031      51.34687801
H       48.53866457      50.12840009      49.02344256
H       50.28281869      50.02266242      48.50991079
H       49.37308309      48.73891357      49.21856193
H       51.44357565      48.79675442      50.58127011
