9
Lattice="100.0 0.0 0.0 0.0 100.0 0.0 0.0 0.0 100.0" Properties=species:S:1:pos:R:3 Energy=-97064.703125 Energy_pyscf=-97067.88972811986 Energy_nn=-97067.1171875 pbc="F F F"
C       50.00220435      50.33567834      50.27528709
C       49.55810554      49.78153042      48.94720633
O       51.05318975      49.26609135      50.84962584
H       50.70088964      51.08409952      50.14733182
H       49.21019132      50.48388390      51.01496873
H       48.93646343      48.89674952      48.95670847
H       48.90112739      50.52797224      48.46619905
H       50.43329326      49.43216006      48.15278805
H       50.93010591      49.32052461      51.81344083
