9
Lattice="100.0 0.0 0.0 0.0 100.0 0.0 0.0 0.0 100.0" Properties=species:S:1:pos:R:3 Energy=-97073.8046875 Energy_pyscf=-97075.46158191182 Energy_nn=-97074.90625 pbc="F F F"
C       50.12199562      50.31447484      50.67153793
C       49.67993575      49.88638024      49.31254254
O       51.21011008      49.47757965      51.30634872
H       50.61146819      51.34380060      50.81163284
H       49.27635036      50.29582137      51.36679274
H       49.02149458      50.63614550      48.91550792
H       50.43581473      49.64124878      48.60171075
H       48.92598811      49.17075488      49.55553532
H       50.83378940      48.63201359      51.23259060
