9
Lattice="100.0 0.0 0.0 0.0 100.0 0.0 0.0 0.0 100.0" Properties=species:S:1:pos:R:3 Energy=-97074.484375 Energy_pyscf=-97075.00814358967 Energy_nn=-97074.2109375 pbc="F F F"
C       49.89139091      50.26715845      50.35260503
C       49.44565237      49.79155072      49.05542186
O       50.86153203      49.34043910      51.00653137
H       50.36828950      51.22920446      50.31719333
H       48.99843544      50.50019841      51.12413749
H       48.90897770      50.67453080      48.63689352
H       50.28247487      49.49092405      48.26365421
H       48.67628200      48.98715506      48.96241420
H       51.28456177      49.76553600      51.70536120
