9
Lattice="100.0 0.0 0.0 0.0 100.0 0.0 0.0 0.0 100.0" Properties=species:S:1:pos:R:3 Energy=-97075.53125 Energy_pyscf=-97077.88766515836 Energy_nn=-97076.75 pbc="F F F"
C       50.20863108      50.37116391      50.68116704
C       49.74387825      50.02430537      49.25792278
O       51.07545890      49.49713684      51.30232573
H       50.76509299      51.35061283      50.75050805
H       49.25005845      50.49048954      51.32333098
H       49.63907285      48.93077993      49.17806018
H       48.77351385      50.51893360      48.87006769
H       50.72289937      50.06011937      48.62887811
H       51.08685296      48.62189630      50.89381338
