9
Lattice="100.0 0.0 0.0 0.0 100.0 0.0 0.0 0.0 100.0" Properties=species:S:1:pos:R:3 Energy=-97085.15625 Energy_pyscf=-97084.58653366705 Energy_nn=-97083.515625 pbc="F F F"
C       49.73544465      50.03872372      50.67734849
C       49.25346759      49.71051007      49.23925070
O       50.62779730      49.12411084      51.21356327
H       50.21304789      51.07215379      50.75080686
H       48.83977229      49.98452106      51.31012753
H       48.75896430      50.55482461      48.68488278
H       50.15493849      49.40111885      48.70701743
H       48.52132018      48.94702560      49.26182406
H       51.51623841      49.25657534      50.78736949
