9
Lattice="100.0 0.0 0.0 0.0 100.0 0.0 0.0 0.0 100.0" Properties=species:S:1:pos:R:3 Energy=-97069.546875 Energy_pyscf=-97068.37452403986 pbc="F F F"
C       50.18910461      50.35157481      50.68327954
C       49.52028884      49.97805843      49.29453192
O       51.20334867      49.48152320      51.25472862
H       50.70843321      51.40332330      50.76463903
H       49.40004573      50.17603664      51.41725090
H       48.85422999      50.62990776      48.72990955
H       50.51146031      49.72605053      48.79022663
H       48.99991063      49.09479771      49.49559760
H       50.78711350      48.53406711      51.34033392
