9
Lattice="100.0 0.0 0.0 0.0 100.0 0.0 0.0 0.0 100.0" Properties=species:S:1:pos:R:3 Energy=-97082.375 Energy_pyscf=-97083.88330160837 Energy_nn=-97082.2578125 pbc="F F F"
C       49.69263586      50.25325710      50.69903584
C       49.20273610      49.78233643      49.30204387
O       50.54266126      49.33809465      51.37948290
H       50.19216824      51.22668852      50.57031502
H       48.89106440      50.39421747      51.44437279
H       48.63931806      48.82868917      49.31298289
H       48.64809761      50.58551445      48.74354771
H       50.06926189      49.65446457      48.52884329
H       51.49593573      49.34835176      50.98814625
