9
Lattice="100.0 0.0 0.0 0.0 100.0 0.0 0.0 0.0 100.0" Properties=species:S:1:pos:R:3 Energy=-97058.6796875 Energy_pyscf=-97061.45915870686 Energy_nn=-97060.03125 pbc="F F F"
C       49.89161284      50.32497095      50.68514756
C       49.37613172      49.77880864      49.39187701
O       50.65226047      49.39151054      51.47829020
H       50.48658983      51.32304853      50.70436556
H       49.09448730      50.53141660      51.47577130
H       48.26302012      50.02723088      49.13909066
H       49.75467540      50.33155485      48.62309413
H       49.60070682      48.56024509      49.57664538
H       51.54682822      49.42580331      51.25895584
