9
Lattice="100.0 0.0 0.0 0.0 100.0 0.0 0.0 0.0 100.0" Properties=species:S:1:pos:R:3 Energy=-97073.828125 Energy_pyscf=-97072.70726175228 Energy_nn=-97073.796875 pbc="F F F"
C       49.76290131      50.33576855      50.81166192
C       49.21573211      49.87666450      49.38617781
O       50.81171271      49.30590870      51.21025998
H       50.04762217      51.39378528      50.66946241
H       48.94571905      50.31491818      51.59231230
H       48.97558181      48.76853059      49.34208631
H       48.46734532      50.49865366      49.13765883
H       49.89310331      49.98768463      48.55242739
H       51.62898685      49.78087237      51.58006801
