9
Lattice="100.0 0.0 0.0 0.0 100.0 0.0 0.0 0.0 100.0" Properties=species:S:1:pos:R:3 Energy=-97068.9609375 Energy_pyscf=-97070.04417292011 Energy_nn=-97068.7109375 pbc="F F F"
C       49.85684234      50.29974004      50.66501740
C       49.19451678      49.82594831      49.41709351
O       50.79660911      49.35861428      51.21345342
H       50.30445978      51.29887658      50.64652432
H       49.00475245      50.20265372      51.23912200
H       49.02295352      48.80982285      49.46971558
H       48.24443725      50.51318092      49.35956926
H       49.89003536      50.13801991      48.58895198
H       51.43134859      49.85990019      51.73059240
