9
Lattice="100.0 0.0 0.0 0.0 100.0 0.0 0.0 0.0 100.0" Properties=species:S:1:pos:R:3 Energy=-97082.8203125 Energy_pyscf=-97078.31159093563 Energy_nn=-97081.3984375 pbc="F F F"
C       49.71790255      50.02625904      50.70368653
C       49.29754902      49.71011128      49.25414646
O       50.72735682      49.29637820      51.41940826
H       50.16689866      51.08921070      50.64997089
H       48.77490900      49.95814268      51.22926807
H       48.77871338      50.64319045      48.88731320
H       50.05219131      49.38469797      48.48815107
H       48.59532292      48.92834258      49.26948197
H       51.47431523      49.09696328      50.77081591
