9
Lattice="100.0 0.0 0.0 0.0 100.0 0.0 0.0 0.0 100.0" Properties=species:S:1:pos:R:3 Energy=-97075.5546875 Energy_pyscf=-97074.30051610373 pbc="F F F"
C       49.99569569      50.13196283      50.71875936
C       49.55802706      49.72884443      49.27252821
O       50.95662712      49.20236896      51.35081268
H       50.36955912      51.11944912      50.56270904
H       49.13759153      50.31364479      51.36087605
H       48.62034653      50.23639822      49.16856151
H       50.33572346      50.17229576      48.54944230
H       49.44013526      48.71523754      49.34542434
H       51.35562610      48.75193969      50.57648241
