9
Lattice="100.0 0.0 0.0 0.0 100.0 0.0 0.0 0.0 100.0" Properties=species:S:1:pos:R:3 Energy=-97074.5 Energy_pyscf=-97073.62706160461 Energy_nn=-97074.5234375 pbc="F F F"
C       49.71798905      50.17155625      50.68614407
C       49.23453518      49.71031975      49.25411583
O       50.66557635      49.43900891      51.42261179
H       50.03923845      51.11167556      50.38925610
H       48.89899494      50.44700038      51.35039550
H       48.57199986      48.87131045      49.22245390
H       48.68014616      50.69210578      48.95970005
H       50.06944964      49.64806598      48.58652254
H       51.52263124      49.29685204      51.06699703
