9
Lattice="100.0 0.0 0.0 0.0 100.0 0.0 0.0 0.0 100.0" Properties=species:S:1:pos:R:3 Energy=-97057.765625 Energy_pyscf=-97062.9642440583 Energy_nn=-97059.2109375 pbc="F F F"
C       49.86656935      50.27138422      50.87933225
C       49.36176159      49.76006024      49.41646402
O       50.87029792      49.15659768      51.23371361
H       50.37967551      51.18155395      51.18835073
H       48.89122299      50.01548886      51.50252912
H       48.54320797      50.17712754      48.91989745
H       50.13319541      49.62953600      48.54692658
H       49.12075956      48.75247026      49.63764854
H       51.61682864      49.44364459      50.59901614
