9
Lattice="100.0 0.0 0.0 0.0 100.0 0.0 0.0 0.0 100.0" Properties=species:S:1:pos:R:3 Energy=-97076.1328125 Energy_pyscf=-97074.85843090473 Energy_nn=-97075.578125 pbc="F F F"
C       49.84397467      50.29247971      50.39211966
C       49.36478130      49.82616618      48.93303251
O       50.84736615      49.31658985      50.90800537
H       50.42577027      51.31373934      50.12208882
H       49.02305735      50.47684282      51.21416975
H       48.87966015      50.70281307      48.54299091
H       50.32381731      49.60511928      48.37914800
H       48.77097448      48.87549433      49.10691305
H       51.24776156      49.61838106      51.79228311
