9
Lattice="100.0 0.0 0.0 0.0 100.0 0.0 0.0 0.0 100.0" Properties=species:S:1:pos:R:3 Energy=-97084.4609375 Energy_pyscf=-97085.08399169626 Energy_nn=-97083.25 pbc="F F F"
C       50.14775355      50.31859561      50.74918077
C       49.65622902      49.93005140      49.34410913
O       51.11090777      49.44674878      51.34453028
H       50.66053824      51.27841071      50.69223070
H       49.28858139      50.48898166      51.41409560
H       48.88173376      50.62687163      48.94855598
H       50.47594362      49.76876120      48.63677095
H       48.99077110      49.00244984      49.39771212
H       50.87732530      48.55756643      51.25828468
