9
Lattice="100.0 0.0 0.0 0.0 100.0 0.0 0.0 0.0 100.0" Properties=species:S:1:pos:R:3 Energy=-97077.984375 Energy_pyscf=-97074.89231394576 pbc="F F F"
C       50.08022635      50.41820409      50.73022929
C       49.64037036      49.93530618      49.30148768
O       51.04259232      49.52222239      51.30763246
H       50.64929125      51.29802274      50.79670730
H       49.23964720      50.38814312      51.47262203
H       49.01856854      50.71476169      48.89980708
H       50.46638387      49.55058150      48.58025537
H       49.07353724      49.00907548      49.62863556
H       50.90892993      48.54992681      51.05013276
