9
Lattice="100.0 0.0 0.0 0.0 100.0 0.0 0.0 0.0 100.0" Properties=species:S:1:pos:R:3 Energy=-97076.75 Energy_pyscf=-97074.39789358483 pbc="F F F"
C       49.87834465      50.34758595      50.74748160
C       49.40530364      49.83458022      49.41134244
O       50.65037607      49.26017329      51.33019465
H       50.58329185      51.18316838      50.62572225
H       48.96220447      50.52813294      51.36618538
H       48.26009597      49.95845060      49.36607715
H       49.89824578      50.31259942      48.55000797
H       49.46474640      48.64913760      49.55840779
H       51.56748619      49.63728871      51.33742062
