9
Lattice="100.0 0.0 0.0 0.0 100.0 0.0 0.0 0.0 100.0" Properties=species:S:1:pos:R:3 Energy=-97078.8515625 Energy_pyscf=-97077.02868806625 pbc="F F F"
C       50.13983846      50.25436052      50.39610006
C       49.82913496      49.79093020      48.92412410
O       50.98793982      49.20380563      51.03591717
H       50.59680344      51.28499973      50.40517442
H       49.22735961      50.26027461      50.96486590
H       48.87208868      50.23482445      48.75228861
H       50.49863374      50.06749241      48.12236020
H       49.58127732      48.78888888      48.75930715
H       51.38880940      49.59726815      51.79383118
