9
Lattice="100.0 0.0 0.0 0.0 100.0 0.0 0.0 0.0 100.0" Properties=species:S:1:pos:R:3 Energy=-97064.859375 Energy_pyscf=-97067.36878274006 Energy_nn=-97066.7109375 pbc="F F F"
C       50.23144680      50.16585290      50.72535711
C       49.68624929      49.75685648      49.32310729
O       50.86695663      49.21389965      51.50207040
H       50.78350309      50.97953914      50.52592585
H       49.42355714      50.40560251      51.33287109
H       48.63636557      49.83154947      49.24532635
H       50.16976311      50.57203487      48.73724377
H       49.93292485      48.71411614      49.12766054
H       51.49455482      48.88401757      50.88005236
