9
Lattice="100.0 0.0 0.0 0.0 100.0 0.0 0.0 0.0 100.0" Properties=species:S:1:pos:R:3 Energy=-97073.984375 Energy_pyscf=-97072.17516276562 pbc="F F F"
C       50.09203245      50.06991124      50.30496940
C       49.61153023      49.59470324      48.84203908
O       51.06169009      49.16710400      50.83695174
H       50.57188965      51.10893320      50.27222255
H       49.27789009      50.18256804      51.13423099
H       49.63394861      50.31334729      48.07681180
H       50.45165031      48.90481252      48.58185196
H       48.62182484      49.27080053      48.78427683
H       51.50211914      49.60252722      51.51127876
