9
Lattice="100.0 0.0 0.0 0.0 100.0 0.0 0.0 0.0 100.0" Properties=species:S:1:pos:R:3 Energy=-97082.625 Energy_pyscf=-97079.6222409288 pbc="F F F"
C       50.23882616      50.29004153      50.21685666
C       49.67522518      49.84205405      48.91893289
O       51.11143156      49.24044500      50.91726968
H       50.83200881      51.16327246      50.09162603
H       49.41175782      50.51079921      50.97898516
H       49.08886412      50.63205996      48.37732396
H       50.50471808      49.55820182      48.28754793
H       48.93207335      49.03336391      48.91251788
H       50.64446616      48.94164040      51.76192049
