9
Lattice="100.0 0.0 0.0 0.0 100.0 0.0 0.0 0.0 100.0" Properties=species:S:1:pos:R:3 Energy=-97085.5859375 Energy_pyscf=-97082.5909298613 Energy_nn=-97083.515625 pbc="F F F"
C       50.18742319      50.38604865      50.70511319
C       49.74102166      49.99078650      49.30613442
O       51.15608339      49.46871099      51.30602810
H       50.74537432      51.29437714      50.53724912
H       49.42736210      50.59075872      51.45400949
H       48.86804940      50.63902566      49.04727093
H       50.52201820      49.99492798      48.57023542
H       49.38647932      48.93628408      49.44006477
H       50.88152868      48.51756359      51.26035011
