9
Lattice="100.0 0.0 0.0 0.0 100.0 0.0 0.0 0.0 100.0" Properties=species:S:1:pos:R:3 Energy=-97063.53125 Energy_pyscf=-97067.326087103 Energy_nn=-97065.9609375 pbc="F F F"
C       50.15476907      50.33039747      50.32564198
C       49.67605493      49.75577471      48.92787509
O       51.04631662      49.29950576      50.90936376
H       50.84706859      51.12209884      50.15512101
H       49.29910079      50.41078275      50.89550906
H       49.38033665      48.83620150      49.45699863
H       48.86287683      50.30081068      48.45333083
H       50.46850267      49.54683017      48.21487963
H       50.88604917      48.92161102      51.77506970
