9
Lattice="100.0 0.0 0.0 0.0 100.0 0.0 0.0 0.0 100.0" Properties=species:S:1:pos:R:3 Energy=-97075.6796875 Energy_pyscf=-97073.99250084633 Energy_nn=-97075.140625 pbc="F F F"
C       49.75601584      50.28603873      50.66162333
C       49.19932639      49.74584700      49.37729771
O       50.55438198      49.25534616      51.32178448
H       50.18107634      51.33373424      50.59925724
H       48.81818742      50.45329830      51.21524379
H       48.79707396      48.78385184      49.41070056
H       48.66573803      50.52032088      48.87895642
H       50.03331653      49.77946642      48.56900194
H       51.37278431      49.22906834      50.90817038
