9
Lattice="100.0 0.0 0.0 0.0 100.0 0.0 0.0 0.0 100.0" Properties=species:S:1:pos:R:3 Energy=-97073.2109375 Energy_pyscf=-97072.01876056308 Energy_nn=-97075.4921875 pbc="F F F"
C       49.85677341      50.30165511      50.84022089
C       49.34280024      49.86471367      49.47836634
O       50.61898302      49.23346146      51.47823714
H       50.39529104      51.28955730      50.60118689
H       49.10029913      50.61884713      51.59317253
H       48.27149178      49.82685624      49.03652861
H       49.92909582      50.32006729      48.60715451
H       49.63099515      48.81135793      49.60667120
H       51.53318620      49.42556125      51.08132584
