9
Lattice="100.0 0.0 0.0 0.0 100.0 0.0 0.0 0.0 100.0" Properties=species:S:1:pos:R:3 Energy=-97086.625 Energy_pyscf=-97084.03132547166 Energy_nn=-97084.1171875 pbc="F F F"
C       50.09577380      50.37687640      50.74929739
C       49.68663772      49.91234417      49.40167882
O       51.04539901      49.43516154      51.35109022
H       50.67762847      51.31249038      50.67634231
H       49.22335792      50.54633820      51.44866843
H       48.91029900      50.64724606      48.97737943
H       50.50558220      49.65280640      48.68382219
H       49.11264465      48.96876101      49.48569999
H       50.92385730      48.49388440      51.02240860
