9
Lattice="100.0 0.0 0.0 0.0 100.0 0.0 0.0 0.0 100.0" Properties=species:S:1:pos:R:3 Energy=-97075.578125 Energy_pyscf=-97077.38400621386 pbc="F F F"
C       50.14899927      50.33330629      50.73020704
C       49.63333108      49.83420375      49.31959136
O       51.03623927      49.41886665      51.51183360
H       50.65413026      51.41959150      50.78627221
H       49.22633716      50.49707435      51.28998282
H       49.04219067      50.67656950      48.99047574
H       50.38646954      49.68215456      48.58483349
H       48.94130228      49.00892735      49.52732900
H       51.03975909      48.53875564      51.05706359
