9
Lattice="100.0 0.0 0.0 0.0 100.0 0.0 0.0 0.0 100.0" Properties=species:S:1:pos:R:3 Energy=-97059.734375 Energy_pyscf=-97058.65933615486 Energy_nn=-97062.5703125 pbc="F F F"
C       50.07724256      50.23109246      50.17610829
C       49.63834842      49.70756650      48.76920411
O       50.94887362      49.18895780      50.77688737
H       50.68327200      51.14171518      50.11251072
H       49.39797359      50.34625291      51.01014870
H       49.07364258      50.44008918      48.24421773
H       50.57368200      49.59638996      48.26041137
H       49.13057116      48.88123672      49.32464844
H       50.52341044      48.87702544      51.46815798
