9
Lattice="100.0 0.0 0.0 0.0 100.0 0.0 0.0 0.0 100.0" Properties=species:S:1:pos:R:3 Energy=-97065.375 Energy_pyscf=-97061.77711018441 Energy_nn=-97065.09375 pbc="F F F"
C       49.67775596      50.09820952      50.58659716
C       49.11926048      49.82810499      49.21055810
O       50.69258341      49.38692820      51.21183721
H       49.94064445      51.16097104      50.55672010
H       49.02943810      50.21417441      51.45299577
H       48.44867690      48.99127795      49.33058844
H       48.87661406      50.75987280      48.70629127
H       49.94759753      49.41404388      48.64128043
H       51.60752429      49.51054756      51.26322040
