9
Lattice="100.0 0.0 0.0 0.0 100.0 0.0 0.0 0.0 100.0" Properties=species:S:1:pos:R:3 Energy=-97078.140625 Energy_pyscf=-97077.67743091755 pbc="F F F"
C       50.13192017      50.31934735      50.24093742
C       49.62435262      49.80388500      48.87586556
O       50.72477174      49.10737680      50.85015295
H       50.89857468      51.13868131      50.01051309
H       49.35810104      50.68350019      50.88458546
H       49.09657948      50.57252421      48.25351805
H       50.45502288      49.51033864      48.28689624
H       49.07039872      48.88829885      48.75049348
H       50.68517253      49.11420557      51.78572293
