9
Lattice="100.0 0.0 0.0 0.0 100.0 0.0 0.0 0.0 100.0" Properties=species:S:1:pos:R:3 Energy=-97078.890625 Energy_pyscf=-97078.49496651923 Energy_nn=-97079.5703125 pbc="F F F"
C       50.21756892      50.38736285      50.68237520
C       49.79301957      50.04682335      49.18368245
O       51.21125584      49.50595854      51.13489022
H       50.65920944      51.41998299      50.72789193
H       49.40209431      50.31470613      51.34568012
H       49.48734301      48.94808036      49.09040034
H       48.88734353      50.43804946      48.88406653
H       50.69047249      50.19925536      48.60639747
H       50.89773645      48.59273052      51.23198340
