9
Lattice="100.0 0.0 0.0 0.0 100.0 0.0 0.0 0.0 100.0" Properties=species:S:1:pos:R:3 Energy=-97066.234375 Energy_pyscf=-97063.00366848973 Energy_nn=-97066.78125 pbc="F F F"
C       50.13912936      50.36617629      50.69741018
C       49.70391981      49.79052748      49.38068902
O       51.10092984      49.31199911      51.33173146
H       50.60287185      51.38197107      50.65684257
H       49.33103878      50.17163485      51.62063249
H       48.67742358      49.97269226      49.05851122
H       50.41093629      50.29558579      48.66253839
H       49.81213186      48.60988647      49.32914720
H       51.44260539      48.63098265      50.68600492
