9
Lattice="100.0 0.0 0.0 0.0 100.0 0.0 0.0 0.0 100.0" Properties=species:S:1:pos:R:3 Energy=-97078.8359375 Energy_pyscf=-97076.8809503028 pbc="F F F"
C       50.18503226      50.35592417      50.38182443
C       49.67768385      49.78186063      48.99191119
O       51.31537986      49.55066877      50.97273963
H       50.68788087      51.35975366      50.17760501
H       49.30610708      50.29229938      51.00425532
H       48.73920301      50.27240514      48.66678567
H       50.46984171      50.07139983      48.30758224
H       49.73972027      48.66945830      48.88972758
H       50.98710219      49.13074335      51.77910191
