9
Lattice="100.0 0.0 0.0 0.0 100.0 0.0 0.0 0.0 100.0" Properties=species:S:1:pos:R:3 Energy=-97081.7421875 Energy_pyscf=-97081.09733320198 Energy_nn=-97081.71875 pbc="F F F"
C       49.90365938      50.16590097      50.29101832
C       49.54502340      49.76617563      48.80734071
O       50.90974461      49.27995800      50.79292218
H       50.40809082      51.19564596      50.24382478
H       48.98380478      50.29710320      50.99360587
H       49.11445618      48.71393751      48.83283237
H       48.93012336      50.51161064      48.24971909
H       50.48615399      49.83727714      48.35419091
H       51.21069032      49.67233937      51.65731968
