9
Lattice="100.0 0.0 0.0 0.0 100.0 0.0 0.0 0.0 100.0" Properties=species:S:1:pos:R:3 Energy=-97061.8828125 Energy_pyscf=-97059.80795661078 Energy_nn=-97061.8125 pbc="F F F"
C       50.24894175      50.52579802      50.76482209
C       49.90382738      50.02246918      49.39332805
O       51.14057581      49.54848707      51.52788401
H       51.13267210      51.31404218      50.57214188
H       49.42214735      50.90431417      51.30397401
H       48.76207633      50.27529239      49.28501194
H       50.43306678      50.34159101      48.52078038
H       50.01850334      48.99083338      49.35432139
H       51.10284606      48.59113235      51.02288791
