9
Lattice="100.0 0.0 0.0 0.0 100.0 0.0 0.0 0.0 100.0" Properties=species:S:1:pos:R:3 Energy=-97064.265625 Energy_pyscf=-97057.10898417943 Energy_nn=-97064.796875 pbc="F F F"
C       50.31241659      50.46417025      50.79591986
C       49.82974984      49.83855178      49.29397268
O       51.15351602      49.37224266      51.32322913
H       50.97524726      51.28839508      50.56924777
H       49.39539145      50.74768705      51.61391111
H       48.72532922      50.25636245      49.10015752
H       50.44338948      50.30421981      48.49212107
H       49.56216244      48.80301733      49.27824736
H       50.48596264      48.76272653      51.16024134
