9
Lattice="100.0 0.0 0.0 0.0 100.0 0.0 0.0 0.0 100.0" Properties=species:S:1:pos:R:3 Energy=-97079.0234375 Energy_pyscf=-97077.09817450654 pbc="F F F"
C       50.19319112      50.24820844      50.74703043
C       49.67877968      49.82789265      49.37256779
O       51.06725769      49.26425273      51.47730796
H       50.73204606      51.20464683      50.72322826
H       49.27293176      50.23833515      51.45379597
H       48.61587239      50.00222655      49.06968675
H       50.35660921      50.25526289      48.61382498
H       49.72834872      48.65746323      49.23460842
H       51.60168803      48.88178454      50.70354892
