9
Lattice="100.0 0.0 0.0 0.0 100.0 0.0 0.0 0.0 100.0" Properties=species:S:1:pos:R:3 Energy=-97065.703125 Energy_pyscf=-97063.44975433052 Energy_nn=-97064.625 pbc="F F F"
C       49.69614194      50.14945448      50.43972593
C       49.32381100      49.74399042      49.05060829
O       50.61387662      49.37765484      51.12921708
H       50.04173403      51.19859031      50.39648092
H       48.84580961      50.21162497      51.26953799
H       48.87914549      50.53867193      48.43701872
H       50.20914899      49.77460610      48.36972715
H       48.67689150      48.91202612      48.85426815
H       51.57229111      49.76018386      51.48456602
