9
Lattice="100.0 0.0 0.0 0.0 100.0 0.0 0.0 0.0 100.0" Properties=species:S:1:pos:R:3 Energy=-97064.96875 Energy_pyscf=-97061.87521078058 Energy_nn=-97064.3671875 pbc="F F F"
C       50.15397966      50.24615052      50.68436243
C       49.72610879      49.68929236      49.29936630
O       50.91760914      49.10957719      51.38234571
H       50.69637491      51.33164360      50.76167003
H       49.27356630      50.20538672      51.46594821
H       48.65373520      50.07716411      49.27898156
H       50.42645407      50.25925183      48.44183847
H       49.68810097      48.65561142      49.32297867
H       51.71430831      48.97593167      50.77607930
