9
Lattice="100.0 0.0 0.0 0.0 100.0 0.0 0.0 0.0 100.0" Properties=species:S:1:pos:R:3 Energy=-97079.8828125 Energy_pyscf=-97078.93448609613 Energy_nn=-97079.953125 pbc="F F F"
C       49.68668525      50.05202522      50.67404050
C       49.33222279      49.74823961      49.27272075
O       50.65204412      49.21154843      51.26348708
H       50.18643146      51.09611863      50.81461368
H       48.82361633      49.93751281      51.28684034
H       48.82646403      50.57028670      48.78539775
H       50.20334637      49.28158967      48.64345633
H       48.50058243      48.96323100      49.30894821
H       51.38647670      49.25223728      50.62623271
