9
Lattice="100.0 0.0 0.0 0.0 100.0 0.0 0.0 0.0 100.0" Properties=species:S:1:pos:R:3 Energy=-97064.4765625 Energy_pyscf=-97060.39058851913 Energy_nn=-97065.3984375 pbc="F F F"
C       49.81360987      50.41550616      50.68141723
C       49.33832688      49.80060503      49.45942410
O       50.55830421      49.31793018      51.45307331
H       50.68538797      51.23488160      50.50182353
H       49.02549805      50.64579525      51.50285900
H       48.18794064      49.70883266      49.18801629
H       49.65891271      50.52728563      48.65874374
H       49.86748091      48.78680442      49.44723086
H       51.54517686      49.24942171      51.40176978
