9
Lattice="100.0 0.0 0.0 0.0 100.0 0.0 0.0 0.0 100.0" Properties=species:S:1:pos:R:3 Energy=-97062.7265625 Energy_pyscf=-97066.28845729788 Energy_nn=-97065.1015625 pbc="F F F"
C       49.73760358      50.32732308      50.70382340
C       49.21635361      49.92104142      49.34869305
O       50.69706807      49.42665050      51.16342616
H       50.28633830      51.32587417      50.86084053
H       48.89248202      50.35341635      51.43999309
H       49.12293840      48.63435740      49.41719485
H       48.33339487      50.47969223      49.24879583
H       49.88580264      50.05988403      48.53909955
H       51.57881313      49.73814611      51.53073633
