9
Lattice="100.0 0.0 0.0 0.0 100.0 0.0 0.0 0.0 100.0" Properties=species:S:1:pos:R:3 Energy=-97083.1015625 Energy_pyscf=-97080.98136873479 Energy_nn=-97082.4375 pbc="F F F"
C       50.21143541      50.38167681      50.30402818
C       49.77517848      49.92883186      48.96056807
O       51.08102408      49.41642187      50.87485665
H       50.93224737      51.20118985      50.25953460
H       49.46164883      50.68010679      51.12073760
H       49.26270457      50.74194619      48.38384303
H       50.62480271      49.52075218      48.38718835
H       48.91601068      49.20303590      49.11392394
H       50.62104551      48.91663033      51.55434106
