9
Lattice="100.0 0.0 0.0 0.0 100.0 0.0 0.0 0.0 100.0" Properties=species:S:1:pos:R:3 Energy=-97059.8828125 Energy_pyscf=-97061.98617233038 Energy_nn=-97062.765625 pbc="F F F"
C       50.13344919      50.24332903      50.24091792
C       49.77672576      49.72989237      48.93347330
O       51.14145061      49.22598624      50.77109607
H       50.70288381      51.11570819      50.28057283
H       49.31283822      50.51910211      50.98451082
H       49.11566289      48.83882121      49.34717458
H       48.98789468      50.27523335      48.60714384
H       50.54416810      49.49400928      48.19765527
H       50.88123119      49.12030467      51.73967741
