15
Lattice="100.0 0.0 0.0 0.0 100.0 0.0 0.0 0.0 100.0" Properties=species:S:1:pos:R:3 Energy=-170045.75 Energy_pyscf=-170047.0673356187 Energy_nn=-170045.234375 pbc="F F F"
C       52.31522363      50.07340469      50.27857359
C       50.83202179      50.02442655      50.18859773
C       50.00726475      49.10398134      50.86683874
C       48.61882806      49.13056243      50.79716200
C       48.03601596      50.07369677      49.89293058
C       48.83359887      50.92609239      49.12395726
C       50.23228626      50.86262946      49.28702655
H       52.79107490      49.02357660      50.27099717
H       52.78617161      50.61681322      49.44018181
H       52.49045072      50.58628498      51.20782197
H       50.59078684      48.33991283      51.36678343
H       48.03032676      48.54975220      51.51180946
H       46.98618236      50.29259234      50.01971568
H       48.35225854      51.74637007      48.54637232
H       50.86466030      51.55555004      48.66558031
