15
Lattice="100.0 0.0 0.0 0.0 100.0 0.0 0.0 0.0 100.0" Properties=species:S:1:pos:R:3 Energy=-170035.21875 Energy_pyscf=-170036.8367881679 pbc="F F F"
C       52.46281872      50.12485778      50.25726261
C       50.97027339      50.02097689      50.35305959
C       50.12822443      49.08250648      51.00872826
C       48.76858435      49.16158705      50.87050778
C       48.12013050      50.08376906      49.90687374
C       48.93782254      50.88226234      49.13177119
C       50.32624558      50.81761590      49.40391193
H       52.77812174      51.06709136      50.62509147
H       53.10838761      49.50859807      50.81956051
H       52.75323124      50.19929325      49.16603146
H       50.61666531      48.27045255      51.65873917
H       48.11973022      48.57751782      51.62836735
H       47.08493904      50.17273959      49.64627844
H       48.50623076      51.54527736      48.38251865
H       50.98275185      51.52970698      48.79956782
