15
Lattice="100.0 0.0 0.0 0.0 100.0 0.0 0.0 0.0 100.0" Properties=species:S:1:pos:R:3 Energy=-170029.171875 Energy_pyscf=-170020.88497848267 Energy_nn=-170027.890625 pbc="F F F"
C       52.60101439      50.13499319      50.21975370
C       51.10858676      50.05726815      50.15542001
C       50.25274925      49.41852294      50.96985988
C       48.90163043      49.18305784      50.68974782
C       48.17752273      50.03459705      49.86325049
C       49.11655937      51.06023802      49.24190221
C       50.46935090      50.89321978      49.24973950
H       53.02969064      50.65574915      49.35003360
H       52.91697061      50.63932384      51.19764225
H       52.91066352      49.12432731      50.20520591
H       50.73654002      48.73571021      51.69938000
H       48.48105387      48.39553130      51.14904138
H       47.13464403      50.15031747      49.75105743
H       48.69885397      51.68856692      48.56100498
H       50.89709723      51.59561276      48.54839869
