15
Lattice="100.0 0.0 0.0 0.0 100.0 0.0 0.0 0.0 100.0" Properties=species:S:1:pos:R:3 Energy=-170038.359375 Energy_pyscf=-170036.7025762329 Energy_nn=-170038.328125 pbc="F F F"
C       52.52831435      49.95054690      50.13662348
C       50.97820349      49.83804414      50.16537247
C       50.13374973      49.01613820      50.97455975
C       48.67615150      49.12391381      50.72930412
C       48.11346128      50.10502845      49.89068747
C       48.88666427      50.83095521      49.00075289
C       50.31929068      50.74237319      49.22896641
H       52.67437207      50.97894120      49.73231324
H       52.96823358      49.71899683      51.14177941
H       52.87233230      49.30741716      49.33099227
H       50.54322925      48.10891109      51.44779023
H       48.09446579      48.31482169      51.28571806
H       46.98517029      50.18838110      50.02568611
H       48.47083683      51.47726300      48.25260293
H       50.98149854      51.32803062      48.61841928
