15
Lattice="100.0 0.0 0.0 0.0 100.0 0.0 0.0 0.0 100.0" Properties=species:S:1:pos:R:3 Energy=-170018.328125 Energy_pyscf=-170012.6935295857 Energy_nn=-170017.765625 pbc="F F F"
C       52.32228869      49.90298702      50.35436226
C       50.83646330      49.95498755      50.02311288
C       50.14360364      48.99367786      50.72256815
C       48.74596157      48.99334546      50.86521828
C       48.12798855      50.00566789      50.03757931
C       48.89004117      50.94604786      49.21874543
C       50.17416691      50.83777885      49.22871759
H       52.49356134      49.04136241      50.90634287
H       53.04551594      49.76832187      49.59061092
H       52.46562648      50.80547762      50.86303867
H       50.70496285      48.30865395      51.38318506
H       47.87136317      48.39207571      51.14347544
H       47.04578166      50.00395869      49.92400830
H       48.35538539      51.66085188      48.40608340
H       50.64226039      51.48527827      48.45670800
