15
Lattice="100.0 0.0 0.0 0.0 100.0 0.0 0.0 0.0 100.0" Properties=species:S:1:pos:R:3 Energy=-170041.359375 Energy_pyscf=-170041.6080193155 Energy_nn=-170042.828125 pbc="F F F"
C       52.51886423      50.15140848      50.21382624
C       51.05450379      50.15688859      50.13056789
C       50.26399750      49.38069903      51.03360407
C       48.89968776      49.18135634      50.78945016
C       48.25906575      50.11137001      49.93908611
C       49.02328177      51.00947953      49.19652688
C       50.43650695      51.04631897      49.24011400
H       53.10051572      50.69452698      49.45071692
H       52.84159575      50.47795591      51.20688404
H       53.08226024      49.19368492      50.19886799
H       50.84452498      48.65888295      51.66687423
H       48.32171967      48.33042756      51.16924299
H       47.12701597      50.14925243      49.80875720
H       48.62880970      51.77098854      48.40539257
H       50.98451118      51.52339990      48.39484467
