15
Lattice="100.0 0.0 0.0 0.0 100.0 0.0 0.0 0.0 100.0" Properties=species:S:1:pos:R:3 Energy=-170038.0 Energy_pyscf=-170040.11776463562 pbc="F F F"
C       52.37545146      49.88385115      50.43256558
C       50.86339100      49.94267449      50.24084961
C       50.09724992      48.97854575      50.88105109
C       48.70737550      49.03140935      50.93852429
C       48.04715718      49.90830272      50.06870800
C       48.84277677      50.83537555      49.32545747
C       50.19666137      50.92324037      49.35281676
H       52.70992731      50.39101585      51.35909246
H       52.84109418      48.88081386      50.50473519
H       52.82724408      50.36979822      49.50197908
H       50.60994836      48.10356468      51.36407911
H       48.14762436      48.43925076      51.54727083
H       46.93546140      50.01816799      49.92970408
H       48.36769736      51.30882975      48.42082801
H       50.88093630      51.58134070      48.79343352
