15
Lattice="100.0 0.0 0.0 0.0 100.0 0.0 0.0 0.0 100.0" Properties=species:S:1:pos:R:3 Energy=-170024.421875 Energy_pyscf=-170014.60021133907 Energy_nn=-170023.109375 pbc="F F F"
C       52.53001773      49.99146442      50.11830256
C       50.96208662      50.00015149      50.31264815
C       50.21088315      48.99756116      50.94951668
C       48.84636152      49.08145302      50.73770813
C       48.25730188      50.10984495      49.95377555
C       48.97690414      51.02799544      49.15799455
C       50.31881864      50.92902140      49.29668368
H       53.03524025      50.05528613      49.10534142
H       52.88831687      50.80347270      50.72097892
H       52.98033613      49.15346698      50.62425204
H       50.79384170      48.44965913      51.77287413
H       48.12406897      48.35404619      51.00612485
H       47.15973035      50.01837551      49.76003702
H       48.47991985      51.59317677      48.24075358
H       50.78555012      51.63328726      48.81189360
