15
Lattice="100.0 0.0 0.0 0.0 100.0 0.0 0.0 0.0 100.0" Properties=species:S:1:pos:R:3 Energy=-170013.84375 Energy_pyscf=-170016.33958410285 Energy_nn=-170018.1875 pbc="F F F"
C       52.37340794      50.07408642      50.32019607
C       50.82933623      49.91276427      50.13348938
C       50.01176483      48.99168489      50.86083387
C       48.62244295      49.18571961      50.73700969
C       48.16508140      50.17201499      49.89169841
C       48.76690074      50.98062921      49.10220451
C       50.26861683      50.78923548      49.24954335
H       52.82561563      49.03802508      50.41875848
H       52.65852675      50.46128609      49.40498110
H       52.47941486      50.82730367      51.03132686
H       50.63428391      48.21857059      51.45514100
H       47.95418112      48.57890436      51.40469816
H       47.07602527      50.25263546      50.05861818
H       48.33449296      51.77785074      48.61686887
H       50.81364711      51.62896632      48.76821113
