15
Lattice="100.0 0.0 0.0 0.0 100.0 0.0 0.0 0.0 100.0" Properties=species:S:1:pos:R:3 Energy=-170032.046875 Energy_pyscf=-170033.9587470048 Energy_nn=-170032.6875 pbc="F F F"
C       52.45038747      50.10389436      50.28335060
C       50.94942398      50.02267047      50.16115081
C       50.15375392      49.08781257      50.89146301
C       48.73593836      49.15695416      50.86547285
C       48.22900347      50.14021566      50.07979383
C       48.90617037      50.95502153      49.25049922
C       50.28353166      50.85730524      49.30911353
H       52.75855320      51.11397793      50.61558765
H       52.99720390      49.40978565      50.94343908
H       52.92596215      50.22316690      49.20614558
H       50.56525327      48.41586392      51.67494008
H       48.07512990      48.51076812      51.53001559
H       47.12470172      50.11382546      49.75858641
H       48.57750173      51.45598048      48.37323516
H       50.90568568      51.51939715      48.72323818
