15
Lattice="100.0 0.0 0.0 0.0 100.0 0.0 0.0 0.0 100.0" Properties=species:S:1:pos:R:3 Energy=-170018.09375 Energy_pyscf=-170018.38119385735 Energy_nn=-170017.671875 pbc="F F F"
C       52.31930018      50.02002254      50.31587769
C       50.88885214      50.02510280      50.14246779
C       50.04486480      49.04045515      50.77814391
C       48.61020953      49.16732818      50.86999922
C       48.08559057      50.02538569      49.88760722
C       48.84348425      50.90622997      49.18092997
C       50.26484122      50.89461386      49.21363355
H       52.94657224      49.05578891      50.44405241
H       52.59698581      50.41312477      49.40750031
H       52.60176267      50.77012430      50.97824365
H       50.56767948      48.22782623      51.26016629
H       47.85749698      48.78668725      51.48316065
H       47.05087690      50.19320243      49.95885040
H       48.20470255      51.66968566      48.54064274
H       50.91125381      51.71929930      48.98208933
