15
Lattice="100.0 0.0 0.0 0.0 100.0 0.0 0.0 0.0 100.0" Properties=species:S:1:pos:R:3 Energy=-170044.625 Energy_pyscf=-170044.18062935723 pbc="F F F"
C       52.37858937      49.88773036      50.39229992
C       50.85559932      49.93975310      50.24326547
C       50.07478229      49.00814175      50.96375066
C       48.69313891      49.06193666      50.86456224
C       48.08062669      49.95288704      50.06608618
C       48.82914715      50.87485462      49.24253135
C       50.21525302      50.93118625      49.42890604
H       52.76135130      50.39650821      51.36368125
H       52.85622134      48.87493663      50.57487357
H       52.85130513      50.26098321      49.41215641
H       50.61529711      48.13525863      51.47181683
H       48.10242586      48.31580307      51.52127486
H       47.03021492      49.95355918      49.87786974
H       48.25681466      51.35837215      48.44427879
H       50.85264579      51.62643809      48.81376342
