15
Lattice="100.0 0.0 0.0 0.0 100.0 0.0 0.0 0.0 100.0" Properties=species:S:1:pos:R:3 Energy=-170043.5625 Energy_pyscf=-170043.90603102904 pbc="F F F"
C       52.31307348      49.97314349      50.30086436
C       50.85595737      49.94861832      50.12125337
C       50.03467618      49.08035936      50.82217343
C       48.68493720      49.25838003      50.81296178
C       48.04557737      50.11757667      49.96482600
C       48.80620885      50.98912505      49.13804100
C       50.24861811      50.88685003      49.28425145
H       52.85709890      49.02873219      50.38670331
H       52.79056110      50.47431170      49.40240957
H       52.57338913      50.60180502      51.13295251
H       50.57568431      48.34770918      51.42768266
H       48.06150518      48.53228613      51.35508877
H       46.88250359      50.26345192      50.08171428
H       48.27951874      51.63967910      48.36850878
H       50.80744124      51.74992233      48.85186188
