15
Lattice="100.0 0.0 0.0 0.0 100.0 0.0 0.0 0.0 100.0" Properties=species:S:1:pos:R:3 Energy=-170043.03125 Energy_pyscf=-170042.65719392596 Energy_nn=-170043.265625 pbc="F F F"
C       52.45807574      49.93755741      50.23810852
C       50.96604369      49.99067353      50.11880228
C       50.22133613      49.12430503      50.93869611
C       48.85578039      49.04522201      50.65988162
C       48.20462138      50.03431980      49.77892877
C       48.98954961      50.94405212      49.14723766
C       50.34294202      50.81395869      49.21128508
H       52.85152127      49.85671641      49.15535019
H       52.89313934      50.82169085      50.65370302
H       52.87243261      49.03710951      50.66236841
H       50.79567915      48.53337186      51.67269091
H       48.20154552      48.39482281      51.18765598
H       47.14349624      49.99701378      49.72823495
H       48.56821168      51.70450000      48.41762083
H       50.94261512      51.53918566      48.71381396
