15
Lattice="100.0 0.0 0.0 0.0 100.0 0.0 0.0 0.0 100.0" Properties=species:S:1:pos:R:3 Energy=-170038.546875 Energy_pyscf=-170035.2339658612 pbc="F F F"
C       52.48168547      49.88053089      50.00263101
C       51.02286013      49.89915935      49.96701934
C       50.13044136      49.07591744      50.80375466
C       48.75772299      48.99808992      50.63400574
C       48.11724128      49.92855393      49.76932756
C       49.02566985      50.76721883      49.07848980
C       50.36760573      50.71970867      49.09702130
H       52.88591524      49.00438032      49.47861508
H       52.83892888      50.86964289      49.57167738
H       52.91988451      49.88246247      50.95958311
H       50.54675252      48.29572070      51.39676370
H       48.09312775      48.45780594      51.30109312
H       47.00966657      50.11709095      49.58638033
H       48.42575657      51.63067644      48.62726823
H       50.91342687      51.27273208      48.34232571
