15
Lattice="100.0 0.0 0.0 0.0 100.0 0.0 0.0 0.0 100.0" Properties=species:S:1:pos:R:3 Energy=-170027.828125 Energy_pyscf=-170019.43336674038 Energy_nn=-170026.953125 pbc="F F F"
C       52.47655990      50.09103486      50.10410019
C       51.02707051      49.91981869      50.04457247
C       50.20761225      49.37206205      51.02419068
C       48.84998402      49.18245294      50.65283635
C       48.21409407      50.09642399      49.73741887
C       48.98580175      50.99024293      49.06599884
C       50.35181380      50.90010626      49.23665703
H       52.95139117      50.37254893      49.07077938
H       52.71875232      50.63252663      51.01473993
H       53.13314858      49.23138311      50.39566905
H       50.80391363      48.71630208      51.59488590
H       48.19677707      48.35993428      51.01195612
H       47.14260198      50.03319808      49.56770932
H       48.57182631      51.79178177      48.42776193
H       51.18244059      51.41243042      48.70678518
