15
Lattice="100.0 0.0 0.0 0.0 100.0 0.0 0.0 0.0 100.0" Properties=species:S:1:pos:R:3 Energy=-170009.71875 Energy_pyscf=-170005.52151891828 Energy_nn=-170015.125 pbc="F F F"
C       52.52780060      50.07183885      50.49950182
C       50.98228421      50.14027104      50.35615702
C       50.12706700      49.11042161      50.93465925
C       48.80840162      49.18660791      50.87176254
C       48.11101650      50.03139930      50.10381609
C       49.08182564      50.87833971      49.37110940
C       50.49569252      51.09273301      49.59071538
H       52.72714834      49.83991715      49.49917831
H       52.82591907      51.15295081      50.42511095
H       52.87528671      49.30809063      51.15064803
H       50.64726613      48.25845570      51.43525963
H       48.23499587      48.63568341      51.60620614
H       47.05175353      49.92075704      49.95442487
H       48.76801577      51.48816606      48.44832324
H       51.15890700      51.68783451      48.96591133
