15
Lattice="100.0 0.0 0.0 0.0 100.0 0.0 0.0 0.0 100.0" Properties=species:S:1:pos:R:3 Energy=-170028.421875 Energy_pyscf=-170023.80365243624 Energy_nn=-170027.171875 pbc="F F F"
C       52.49417826      49.85163639      50.06774642
C       50.96832341      49.91981370      50.20695321
C       50.16212422      48.97246758      50.71858263
C       48.76573075      49.05278758      50.62014874
C       48.06254708      49.96498608      49.81422504
C       48.90720474      50.84406805      49.06377542
C       50.21222799      50.74920382      49.24993439
H       52.79700620      50.91804557      49.79431186
H       52.91542718      49.61200381      51.07732141
H       52.96092767      49.20225251      49.36389623
H       50.45445410      48.22854204      51.48678750
H       48.40077261      48.49564747      51.48876332
H       46.96144811      50.12415950      49.73117810
H       48.44912683      51.53425299      48.42021285
H       50.78776020      51.31331912      48.63813700
