15
Lattice="100.0 0.0 0.0 0.0 100.0 0.0 0.0 0.0 100.0" Properties=species:S:1:pos:R:3 Energy=-170031.625 Energy_pyscf=-170031.15045288418 Energy_nn=-170031.25 pbc="F F F"
C       52.32746252      50.06128470      50.05450823
C       50.85759035      49.94841039      50.00231140
C       50.05698211      49.06502710      50.80307098
C       48.70824310      49.05607151      50.74537988
C       48.02736234      49.97688832      49.91543924
C       48.72880675      50.91460760      49.11716628
C       50.22303745      50.80349072      49.11718290
H       52.96978030      49.10819912      50.01237426
H       52.57521904      50.90381622      49.40193700
H       52.64650344      50.25073247      51.02383499
H       50.54278496      48.62262575      51.67790614
H       48.06766722      48.28780168      51.40274080
H       46.94911774      49.97008870      49.60509945
H       48.32903521      51.67040342      48.44559421
H       50.79593871      51.34280531      48.38787920
