15
Lattice="100.0 0.0 0.0 0.0 100.0 0.0 0.0 0.0 100.0" Properties=species:S:1:pos:R:3 Energy=-170037.578125 Energy_pyscf=-170035.48638537023 pbc="F F F"
C       52.49468391      49.96745981      50.14151646
C       50.91831221      49.84319586      50.06735387
C       50.07798163      49.02781662      50.81944247
C       48.67880267      48.99452654      50.72238040
C       48.02099188      49.96575155      49.86621158
C       48.88981112      50.67628044      49.02952463
C       50.34151188      50.70414193      49.15336451
H       52.77275462      50.98587132      49.83163036
H       52.80243963      49.60630063      51.10646327
H       52.95998576      49.34748858      49.33686301
H       50.61326180      48.31596595      51.51998194
H       48.15950085      48.29210607      51.39427411
H       47.07741155      50.41663201      49.99064365
H       48.53890623      51.52238103      48.36984464
H       50.88043853      51.38391170      48.60604811
