15
Lattice="100.0 0.0 0.0 0.0 100.0 0.0 0.0 0.0 100.0" Properties=species:S:1:pos:R:3 Energy=-170012.40625 Energy_pyscf=-170008.3397562402 Energy_nn=-170014.578125 pbc="F F F"
C       52.46647636      49.98985757      50.38429510
C       50.95597997      50.04490293      50.12330559
C       50.10049150      49.16201461      50.86376771
C       48.79055337      49.31966631      50.95299701
C       48.01441775      50.24405986      50.19119113
C       48.85933848      50.93384831      49.28622391
C       50.39421082      51.04493992      49.45355887
H       52.78044499      49.99891719      49.35070673
H       52.90966105      50.95750033      50.91214746
H       53.06173716      49.07214034      50.74157624
H       50.69740819      48.39998220      51.38236479
H       48.20096906      48.73884625      51.61263632
H       46.94573943      50.35835157      49.82496463
H       48.42366514      51.42310742      48.41547764
H       50.97014757      51.65734146      48.90263026
