15
Lattice="100.0 0.0 0.0 0.0 100.0 0.0 0.0 0.0 100.0" Properties=species:S:1:pos:R:3 Energy=-170020.328125 Energy_pyscf=-170016.53779516995 Energy_nn=-170021.9375 pbc="F F F"
C       52.49358018      49.85136346      49.99642440
C       50.97717143      49.80395615      49.89716070
C       50.22715597      49.03481016      50.74989007
C       48.71163352      48.96949270      50.57741565
C       48.12005607      49.85910747      49.70336865
C       48.98605593      50.74977101      49.03137690
C       50.37922872      50.70382356      49.04419123
H       53.09600071      49.01346547      49.52244627
H       52.60441319      50.75986846      49.45802470
H       52.73960194      50.09413445      50.99060009
H       50.51267677      48.36010702      51.55469076
H       48.11265370      48.37352228      51.16387255
H       47.09342646      50.33134402      49.71413490
H       48.46414369      51.69854666      48.80175156
H       50.95686912      51.17234267      48.36015163
