15
Lattice="100.0 0.0 0.0 0.0 100.0 0.0 0.0 0.0 100.0" Properties=species:S:1:pos:R:3 Energy=-170050.65625 Energy_pyscf=-170047.47824020323 Energy_nn=-170048.546875 pbc="F F F"
C       52.36863490      49.85075124      50.29589380
C       50.85421124      49.92589864      50.08367998
C       50.07595027      49.01048296      50.84450807
C       48.64315480      49.10188128      50.82602954
C       48.00981884      49.98097115      49.95079924
C       48.81059746      50.87190664      49.13445338
C       50.17399369      50.81905440      49.25655769
H       52.78785320      49.11568812      49.64016110
H       52.75859745      50.83582579      50.06582018
H       52.62640813      49.52293774      51.29005109
H       50.46801562      48.28200674      51.53539035
H       48.10168181      48.45544318      51.50036428
H       46.99383734      49.86007394      49.73503596
H       48.27256439      51.52107603      48.46672647
H       50.72323313      51.63641390      48.72829909
