15
Lattice="100.0 0.0 0.0 0.0 100.0 0.0 0.0 0.0 100.0" Properties=species:S:1:pos:R:3 Energy=-170008.3125 Energy_pyscf=-169993.6262362104 Energy_nn=-170012.046875 pbc="F F F"
C       52.57047858      49.95481935      50.19099470
C       51.00352244      49.86979709      50.11788422
C       50.26703345      49.14573755      51.08528724
C       48.76158747      49.09945827      50.64458292
C       48.15163561      50.18939418      49.92866672
C       48.96425773      50.94527705      49.19285428
C       50.34292203      50.60872600      49.16434495
H       52.77357655      49.95904708      49.19640085
H       52.87576249      50.89409472      50.65807770
H       52.99629379      49.02298498      50.75636167
H       50.83129337      48.50254987      51.60710994
H       48.16932788      48.34686180      50.96732334
H       47.17721382      50.04772597      49.75692851
H       48.59801658      51.69569326      48.41162779
H       50.85726277      51.50250588      48.60379562
