15
Lattice="100.0 0.0 0.0 0.0 100.0 0.0 0.0 0.0 100.0" Properties=species:S:1:pos:R:3 Energy=-170037.15625 Energy_pyscf=-170033.74090852134 pbc="F F F"
C       52.58535442      50.18838700      50.25224652
C       51.04430066      50.11992196      50.17619124
C       50.32732556      49.32466509      51.01530043
C       48.95481754      49.16880807      50.79290705
C       48.26272907      50.08771878      49.84650193
C       49.01199454      51.02335088      49.19739921
C       50.41748588      50.99844639      49.25810481
H       52.93526839      50.64518942      49.38907097
H       52.84240968      50.55569565      51.22634552
H       52.86731911      49.12743859      50.13836688
H       50.92845923      48.71056193      51.61642135
H       48.34879274      48.41421229      51.18455153
H       47.12516712      50.09999499      49.81852542
H       48.63171661      51.77122875      48.37700233
H       51.13728726      51.55349639      48.55590883
