15
Lattice="100.0 0.0 0.0 0.0 100.0 0.0 0.0 0.0 100.0" Properties=species:S:1:pos:R:3 Energy=-170030.34375 Energy_pyscf=-170031.41764915982 Energy_nn=-170032.9375 pbc="F F F"
C       52.55576151      50.07880949      50.50831317
C       51.04590527      50.08463497      50.43009710
C       50.23135427      49.11928860      51.04293393
C       48.76725778      49.17245959      50.94384287
C       48.12293352      50.13777680      50.02493169
C       49.02780353      50.98664309      49.34445885
C       50.37153377      50.89001335      49.45845824
H       52.76713269      49.71344445      49.55120134
H       53.00558760      51.09477424      50.24399137
H       52.96385404      49.51105216      51.30093711
H       50.66318194      48.30629470      51.52851844
H       48.20247382      48.35544344      51.37335585
H       47.04775734      50.10011517      49.92724737
H       48.57141684      51.63981404      48.50122726
H       51.07224318      51.62404246      49.01545705
