15
Lattice="100.0 0.0 0.0 0.0 100.0 0.0 0.0 0.0 100.0" Properties=species:S:1:pos:R:3 Energy=-170019.59375 Energy_pyscf=-170014.8411186818 Energy_nn=-170019.828125 pbc="F F F"
C       52.36171018      50.01226188      50.29850780
C       50.83777559      49.95003833      50.11835297
C       50.14034951      49.02914065      50.78918070
C       48.58612091      49.16761372      50.81080574
C       48.12693360      50.15246335      49.99114482
C       48.79634933      50.93325931      49.11755929
C       50.18244049      50.81016878      49.20757110
H       52.92397280      48.99233484      50.43322972
H       52.67270238      50.45106411      49.40911892
H       52.56449201      50.62352725      51.15936748
H       50.60659453      48.45577160      51.55784722
H       47.98955669      48.55039985      51.26337046
H       47.03619704      50.23661432      50.05929898
H       48.29332926      51.79882340      48.48067961
H       50.66593317      51.71209937      48.78846935
