15
Lattice="100.0 0.0 0.0 0.0 100.0 0.0 0.0 0.0 100.0" Properties=species:S:1:pos:R:3 Energy=-170037.0 Energy_pyscf=-170037.69866027648 pbc="F F F"
C       52.31156274      49.98601421      50.29721032
C       50.85279541      50.05926800      50.06402858
C       50.08667653      49.11459242      50.84750549
C       48.71970637      49.17542069      50.78557692
C       48.05558639      50.07965768      50.03687869
C       48.74118809      50.95670623      49.12193993
C       50.13160588      50.97047835      49.26619053
H       52.83100077      48.97861369      50.23865367
H       53.01205168      50.46739365      49.54513678
H       52.50576689      50.50519715      51.28353946
H       50.64377482      48.41652569      51.54909414
H       48.00799926      48.62628526      51.35754899
H       46.85677981      50.10824707      50.01470163
H       48.33832584      51.79588095      48.50178622
H       50.69521828      51.63896960      48.59978193
