15
Lattice="100.0 0.0 0.0 0.0 100.0 0.0 0.0 0.0 100.0" Properties=species:S:1:pos:R:3 Energy=-170018.015625 Energy_pyscf=-170013.80080859057 Energy_nn=-170019.359375 pbc="F F F"
C       52.50701636      50.13864492      50.21585297
C       51.00633190      49.93780279      50.13465964
C       50.23221355      49.02287262      50.87925188
C       48.78694867      49.22425975      50.79075996
C       48.20059284      50.02505697      49.90938409
C       48.97353664      50.91816860      49.08759283
C       50.31138984      50.87704386      49.43449841
H       52.81223949      50.92637753      49.42271792
H       52.89528114      50.60084689      51.14049730
H       52.95083234      49.25025111      49.98146545
H       50.86225178      48.28527331      51.37070963
H       48.10375605      49.10445787      51.61079664
H       47.03044786      50.30241095      49.83012739
H       48.51580403      51.73446609      48.59375874
H       51.00749183      51.53311097      48.84883561
