15
Lattice="100.0 0.0 0.0 0.0 100.0 0.0 0.0 0.0 100.0" Properties=species:S:1:pos:R:3 Energy=-170012.71875 Energy_pyscf=-169999.3444427919 Energy_nn=-170015.984375 pbc="F F F"
C       52.51610949      49.99216101      49.98069413
C       50.94670008      49.86463441      49.96208975
C       50.08991714      49.16606415      50.86560134
C       48.69971134      49.15086691      50.63880385
C       48.09811209      49.94971176      49.86994870
C       49.02862691      50.88392220      49.24683234
C       50.41122335      50.95685298      49.30878370
H       52.86207454      48.96002623      50.03335877
H       52.84650048      50.69014545      49.21602366
H       52.94105094      50.52087421      50.81081552
H       50.42139417      48.46475714      51.60969723
H       48.04310424      48.46979884      51.11677893
H       46.96711688      50.00605022      49.72136638
H       48.36660762      51.58964581      48.55852233
H       50.88879472      51.45067919      48.59725968
