15
Lattice="100.0 0.0 0.0 0.0 100.0 0.0 0.0 0.0 100.0" Properties=species:S:1:pos:R:3 Energy=-170033.703125 Energy_pyscf=-170031.12022281523 Energy_nn=-170033.671875 pbc="F F F"
C       52.25507441      49.85159043      50.37832669
C       50.74722129      49.86773973      50.05795772
C       49.96708040      48.97755798      50.83465406
C       48.48104799      49.11245118      50.92351235
C       47.97309594      49.90848853      49.89865546
C       48.81227625      50.74440215      49.11436886
C       50.15737696      50.80403431      49.25304743
H       52.42284779      50.82895866      50.84428390
H       52.56036962      49.24122316      51.22302870
H       52.90340902      49.65219903      49.51896174
H       50.48866898      48.17527426      51.27675784
H       47.87287483      48.42082484      51.63298261
H       46.91586528      49.80535336      49.96483142
H       48.26214792      51.35400037      48.34937970
H       50.68602626      51.63979010      48.79373381
