15
Lattice="100.0 0.0 0.0 0.0 100.0 0.0 0.0 0.0 100.0" Properties=species:S:1:pos:R:3 Energy=-170010.828125 Energy_pyscf=-170002.55533947365 Energy_nn=-170014.828125 pbc="F F F"
C       52.50749701      50.00049937      50.01921968
C       50.98432309      49.87211858      49.95092498
C       50.13587725      49.30028359      50.92824427
C       48.76183495      49.07155157      50.63171578
C       48.08339726      50.05172560      49.77755265
C       48.87380640      50.89948036      49.21350550
C       50.39375168      50.70739030      49.01051118
H       53.01231576      48.95903209      50.13592728
H       52.87296243      50.46377112      49.13463521
H       52.78639052      50.65060929      50.96982966
H       50.42923974      48.47411210      51.57887764
H       48.21737812      48.31119350      51.15462397
H       46.85203787      50.13223583      49.63254713
H       48.39518114      51.74948989      48.86365333
H       50.84229678      51.48733479      48.50480900
