15
Lattice="100.0 0.0 0.0 0.0 100.0 0.0 0.0 0.0 100.0" Properties=species:S:1:pos:R:3 Energy=-170014.71875 Energy_pyscf=-170010.85835995007 Energy_nn=-170015.15625 pbc="F F F"
C       52.29503301      49.80683623      50.25573339
C       50.87822977      49.98572067      50.21139138
C       50.15547150      49.10345975      50.95260829
C       48.68364503      49.10886114      50.81158236
C       48.04768860      50.08605223      50.04209706
C       48.77209331      50.92581179      49.06190967
C       50.07044866      50.83856628      49.32900207
H       52.72043674      48.95176253      49.67662247
H       52.72134136      50.72501100      49.97476140
H       52.68987521      49.57464244      51.27597636
H       50.45410155      48.28158808      51.55288456
H       48.10743981      48.32847219      51.36729966
H       47.11256438      49.76364684      49.78272412
H       48.19164608      51.53099799      48.27149019
H       50.72405494      51.73512448      48.80271532
