15
Lattice="100.0 0.0 0.0 0.0 100.0 0.0 0.0 0.0 100.0" Properties=species:S:1:pos:R:3 Energy=-170035.25 Energy_pyscf=-170029.97308072023 pbc="F F F"
C       52.47199593      49.97288251      50.19266624
C       51.00771426      49.95624364      50.20897115
C       50.28228514      49.08112290      50.95315921
C       48.91816979      49.13911261      50.83935199
C       48.21322114      49.97439071      49.85683500
C       48.97344264      50.78738471      49.19568182
C       50.37216253      50.92042938      49.42719826
H       52.89699993      49.89576729      49.15232223
H       52.82992433      50.82610304      50.83652883
H       52.83509324      49.05465752      50.63127370
H       50.75188472      48.28694323      51.54114079
H       48.26087990      48.61536784      51.54288379
H       47.19341188      50.04569890      49.72177035
H       48.76971992      51.44154000      48.30220023
H       51.01263102      51.54136199      48.81941259
