15
Lattice="100.0 0.0 0.0 0.0 100.0 0.0 0.0 0.0 100.0" Properties=species:S:1:pos:R:3 Energy=-170045.015625 Energy_pyscf=-170043.6054320846 Energy_nn=-170044.703125 pbc="F F F"
C       52.57998983      50.06676219      50.15721060
C       51.07130686      50.00506753      50.07321309
C       50.28723179      49.21948688      50.86429631
C       48.90786796      49.20851448      50.67986262
C       48.25152150      50.06848084      49.80964860
C       48.97982237      50.95803904      49.01513705
C       50.41503577      50.89544594      49.17588112
H       52.95732327      50.41637854      49.20159032
H       52.77282889      50.78243992      51.00789609
H       52.86141374      49.08665673      50.34241204
H       50.69123160      48.53898827      51.65603263
H       48.26426749      48.38682689      51.16206478
H       47.15926242      50.11707077      49.55472032
H       48.58080456      51.68242651      48.28773148
H       51.01192173      51.65092793      48.70091291
