15
Lattice="100.0 0.0 0.0 0.0 100.0 0.0 0.0 0.0 100.0" Properties=species:S:1:pos:R:3 Energy=-170017.046875 Energy_pyscf=-170017.9691838924 Energy_nn=-170019.671875 pbc="F F F"
C       52.53660325      49.91167893      49.91819382
C       51.03076518      49.85239752      49.93623119
C       50.13200886      48.99406731      50.70441319
C       48.77023365      48.98750280      50.70478149
C       48.02103288      49.88978177      49.85644439
C       48.93744774      50.86580839      49.02210086
C       50.33863019      50.64976734      49.07242207
H       52.86363620      48.85793063      49.53257252
H       52.91106399      50.80789896      49.46349034
H       52.86666920      49.89604455      50.93506175
H       50.62159647      48.53704157      51.55659492
H       48.08663284      48.30697309      51.19066720
H       46.91849147      50.09406694      49.58401179
H       48.46891036      51.71188762      48.55528051
H       51.01454014      51.44299739      48.55525760
