15
Lattice="100.0 0.0 0.0 0.0 100.0 0.0 0.0 0.0 100.0" Properties=species:S:1:pos:R:3 Energy=-170009.078125 Energy_pyscf=-170006.60448243326 Energy_nn=-170014.125 pbc="F F F"
C       52.49100893      49.89907417      50.31114079
C       50.91267312      49.99826454      50.00009614
C       50.07943832      49.07678716      50.79783875
C       48.60039374      49.04760664      50.85004848
C       47.92092742      50.01229907      50.04606956
C       48.78818969      50.85907770      49.12309111
C       50.18797578      50.84911493      49.18138198
H       52.59727192      48.90211645      50.83651493
H       53.07145989      49.58363421      49.31348161
H       52.94625128      50.70215383      50.79189460
H       50.70985996      48.32246421      51.23598389
H       47.80873040      48.30574556      50.98331384
H       46.84649541      50.05723913      49.72523458
H       48.28848776      51.48835589      48.49003906
H       50.67731226      51.82533950      48.79390856
