15
Lattice="100.0 0.0 0.0 0.0 100.0 0.0 0.0 0.0 100.0" Properties=species:S:1:pos:R:3 Energy=-170027.71875 Energy_pyscf=-170028.42424166287 Energy_nn=-170028.5 pbc="F F F"
C       52.60113280      49.88993521      50.04590234
C       51.08287372      49.93503430      49.98346199
C       50.24608702      49.06433170      50.76251362
C       48.79513376      49.13312884      50.70899844
C       48.18503796      49.81447486      49.71331815
C       49.06380459      50.81952192      49.06536264
C       50.44283366      50.88986221      49.15135010
H       52.96020869      50.21207670      49.09739963
H       53.06291665      50.55657856      50.74953154
H       53.00152674      48.82137169      50.11739856
H       50.53614143      48.51364370      51.61802584
H       48.14564952      48.54578469      51.55206620
H       47.13941000      49.78864266      49.31490135
H       48.64620483      51.66205681      48.42234689
H       51.01456309      51.51594815      48.35068979
