15
Lattice="100.0 0.0 0.0 0.0 100.0 0.0 0.0 0.0 100.0" Properties=species:S:1:pos:R:3 Energy=-170050.3125 Energy_pyscf=-170047.09079450363 Energy_nn=-170048.046875 pbc="F F F"
C       52.54232133      50.00015055      50.19922720
C       51.00707848      49.96799966      50.09330039
C       50.20632198      49.13027555      50.89514395
C       48.80401679      49.12561177      50.70069945
C       48.16531762      50.03614357      49.84595844
C       48.98806465      50.97091415      49.19043588
C       50.34572550      50.86802816      49.33980502
H       52.93670403      50.15069510      49.15801636
H       52.82170068      50.84331756      50.87598402
H       52.94178931      49.15200671      50.67096108
H       50.81465869      48.43504033      51.52834592
H       48.22084702      48.39476043      51.23351614
H       47.07914384      49.99972462      49.73605694
H       48.50692763      51.68790321      48.42667771
H       50.97443054      51.47780600      48.68383305
