15
Lattice="100.0 0.0 0.0 0.0 100.0 0.0 0.0 0.0 100.0" Properties=species:S:1:pos:R:3 Energy=-170021.453125 Energy_pyscf=-170018.66310378912 Energy_nn=-170021.21875 pbc="F F F"
C       52.57045782      49.98678554      50.19059349
C       50.94689754      49.96344235      50.09929036
C       50.10163666      49.11871709      50.92906982
C       48.70838217      49.03137530      50.70221437
C       48.19731626      49.99704972      49.94695714
C       49.00205412      50.98115532      49.26026202
C       50.43846494      50.84219073      49.26328693
H       52.96433354      49.82899562      49.14759685
H       53.02192360      50.88450210      50.54764773
H       52.88363749      49.10060698      50.73814617
H       50.70160335      48.58282296      51.72216941
H       48.25121444      48.19967364      51.08801575
H       46.97881672      50.07304941      49.67961869
H       48.53881968      51.71548744      48.41485141
H       51.05522967      51.50044477      48.56987313
