15
Lattice="100.0 0.0 0.0 0.0 100.0 0.0 0.0 0.0 100.0" Properties=species:S:1:pos:R:3 Energy=-170042.21875 Energy_pyscf=-170042.72861700543 Energy_nn=-170042.671875 pbc="F F F"
C       52.46456779      49.84734363      49.95806660
C       50.96745591      49.89075954      50.06020203
C       50.16168816      48.98022633      50.76746632
C       48.76583975      48.99156779      50.60223295
C       48.13037174      49.97015325      49.67775694
C       48.93917993      50.85139305      49.00308312
C       50.30933862      50.72727558      49.16559176
H       52.91942037      48.87198591      49.60837585
H       52.79909189      50.68525695      49.33328942
H       52.87699660      50.02119019      50.91059077
H       50.67148581      48.36578716      51.47247180
H       48.11768796      48.42929539      51.21149011
H       46.99437815      50.09846416      49.70151694
H       48.42890496      51.61812852      48.47998861
H       50.94194978      51.42820183      48.64428979
