15
Lattice="100.0 0.0 0.0 0.0 100.0 0.0 0.0 0.0 100.0" Properties=species:S:1:pos:R:3 Energy=-170022.921875 Energy_pyscf=-170020.6262287189 Energy_nn=-170024.375 pbc="F F F"
C       52.27062033      50.00990192      50.16220675
C       50.73923215      49.93710623      50.04882079
C       50.04741625      49.12483054      50.89415340
C       48.61094751      49.01568553      50.67589920
C       48.06089050      50.12214850      49.83026803
C       48.83906752      50.86515058      49.01644347
C       50.23380273      50.82106976      49.15899289
H       52.87555465      49.19072378      49.88175171
H       52.62866100      50.76338092      49.41538151
H       52.70423377      50.48622247      51.08061845
H       50.61123692      48.49808917      51.57748363
H       48.02723268      48.34832748      51.29776618
H       46.93911851      49.83109182      49.80444184
H       48.38013771      51.67210239      48.53028201
H       50.80884566      51.28824603      48.27911724
