15
Lattice="100.0 0.0 0.0 0.0 100.0 0.0 0.0 0.0 100.0" Properties=species:S:1:pos:R:3 Energy=-170049.203125 Energy_pyscf=-170044.741060285 Energy_nn=-170047.828125 pbc="F F F"
C       52.42656803      49.92924147      50.24697087
C       50.85399043      49.98877729      50.08205035
C       50.12137914      49.11569847      50.82901867
C       48.69107216      49.18117703      50.69715058
C       48.03170550      50.04291292      49.82714029
C       48.79509918      50.90797070      49.08471055
C       50.18939821      50.87057662      49.14942369
H       52.91709418      50.84439258      49.77944862
H       52.85075440      49.80475286      51.22737193
H       52.88569207      49.15019695      49.58209913
H       50.63273618      48.39022967      51.54951627
H       48.03105779      48.61546160      51.27836785
H       46.93166244      50.00985186      49.68955163
H       48.34407641      51.66663425      48.32190796
H       50.82416633      51.62506109      48.64726296
