15
Lattice="100.0 0.0 0.0 0.0 100.0 0.0 0.0 0.0 100.0" Properties=species:S:1:pos:R:3 Energy=-170037.171875 Energy_pyscf=-170037.60208910514 pbc="F F F"
C       52.43749333      49.96548378      50.19859535
C       50.98568337      49.93517215      50.03203511
C       50.30034567      49.05157770      50.88567324
C       48.88088024      49.09735769      50.72054524
C       48.24394069      50.03213558      49.91798705
C       49.00024615      51.05524586      49.15398930
C       50.36709827      50.83552461      49.23741726
H       52.91729161      50.18280037      49.28989421
H       52.67851805      50.88593582      50.84664765
H       52.83340774      49.05399915      50.66898726
H       50.85437846      48.48146457      51.57674451
H       48.19662093      48.33522143      51.22747861
H       47.18703255      50.00689660      49.78696914
H       48.42694419      51.76289533      48.43432920
H       51.02304954      51.53957420      48.59630044
