15
Lattice="100.0 0.0 0.0 0.0 100.0 0.0 0.0 0.0 100.0" Properties=species:S:1:pos:R:3 Energy=-170037.125 Energy_pyscf=-170038.6835012972 pbc="F F F"
C       52.48080656      50.19233532      50.36041629
C       50.99872520      49.96438383      50.20445498
C       50.16085527      49.16765721      51.03436665
C       48.75535632      49.22657000      50.85006329
C       48.13422144      50.14092836      50.01991505
C       48.94963059      50.98372988      49.15696754
C       50.34087287      50.78012635      49.33117954
H       52.66630180      51.22025805      50.65387294
H       52.95609106      49.36483088      50.89337645
H       52.83801192      50.10652640      49.21895235
H       50.59910395      48.31421257      51.55410844
H       48.25690194      48.52210271      51.54455572
H       47.09361216      50.05200772      49.79289051
H       48.51285845      51.60584648      48.35815636
H       50.95935164      51.43389846      48.70172407
