15
Lattice="100.0 0.0 0.0 0.0 100.0 0.0 0.0 0.0 100.0" Properties=species:S:1:pos:R:3 Energy=-170046.921875 Energy_pyscf=-170045.02673595294 Energy_nn=-170045.125 pbc="F F F"
C       52.49191828      49.90658354      50.20370510
C       50.98803712      50.03283878      50.19539054
C       50.22392282      49.11636382      50.90570668
C       48.83096575      49.08322836      50.70532680
C       48.17049997      50.07147975      49.82783768
C       48.98253624      50.96282517      49.09699681
C       50.37644349      50.85660086      49.29300892
H       52.93073264      49.83960150      49.09781569
H       52.87825636      50.86975201      50.57572643
H       52.90071221      49.03453850      50.76976685
H       50.72960356      48.49940691      51.71356707
H       48.22273599      48.21976591      51.13171294
H       47.12305852      50.07396379      49.72079350
H       48.50605799      51.70479749      48.43020572
H       50.96032814      51.51462101      48.61167935
