15
Lattice="100.0 0.0 0.0 0.0 100.0 0.0 0.0 0.0 100.0" Properties=species:S:1:pos:R:3 Energy=-170042.28125 Energy_pyscf=-170042.7655655438 Energy_nn=-170043.375 pbc="F F F"
C       52.44706971      49.99548249      50.12657070
C       50.92530479      49.95891170      50.05504602
C       50.08571662      49.12871166      50.83300991
C       48.71334334      49.20331596      50.73641777
C       48.07812947      49.94781200      49.74518584
C       48.84576753      50.88664108      49.04924542
C       50.26722249      50.91408562      49.21167275
H       52.90090618      50.90324715      49.83062798
H       52.79021392      49.91563928      51.19060789
H       52.82590703      48.97977102      49.67621229
H       50.49907937      48.27890455      51.43670830
H       48.06098366      48.70453844      51.43947342
H       46.93792397      49.90346131      49.66851552
H       48.41834201      51.74402996      48.43645604
H       50.72564663      51.69523803      48.57218378
