15
Lattice="100.0 0.0 0.0 0.0 100.0 0.0 0.0 0.0 100.0" Properties=species:S:1:pos:R:3 Energy=-170028.078125 Energy_pyscf=-170022.64841114666 pbc="F F F"
C       52.51633851      50.08322842      50.13443684
C       51.06663670      49.96798968      49.99001419
C       50.26307964      49.23159146      50.86188268
C       48.88557225      49.34041929      50.83958207
C       48.30297970      50.18703746      49.84906422
C       49.05691801      50.97609339      49.10225098
C       50.38592153      51.01454146      49.27851951
H       52.85135644      50.57038641      49.26230747
H       52.77064955      50.64752280      51.05841097
H       52.94461122      49.09794850      50.35666743
H       50.74210729      48.67379668      51.71493275
H       48.39908979      48.30778970      51.11290888
H       47.27832610      50.19620263      49.51204880
H       48.54338169      51.48296889      48.24723828
H       51.07615976      51.67800740      48.67606686
