15
Lattice="100.0 0.0 0.0 0.0 100.0 0.0 0.0 0.0 100.0" Properties=species:S:1:pos:R:3 Energy=-170018.28125 Energy_pyscf=-170010.17700291213 Energy_nn=-170020.078125 pbc="F F F"
C       52.40821571      49.87277209      50.12881851
C       50.84807981      50.13561041      50.31639232
C       50.15873417      49.09387191      50.88965041
C       48.77320213      49.09138817      50.81988554
C       48.16397336      49.98592905      49.98263373
C       48.94900293      50.76101198      49.08990194
C       50.38305890      51.09831987      49.44770900
H       52.89229370      50.73305520      49.67013633
H       52.85339674      49.88839529      51.12829923
H       52.72921915      48.93559511      49.69578061
H       50.90483862      48.43455212      51.35618079
H       48.15887965      48.71060129      51.55640292
H       47.11986683      50.05693939      49.72642297
H       48.30346918      51.32555103      48.26847515
H       50.92064896      51.78507406      48.72877760
