15
Lattice="100.0 0.0 0.0 0.0 100.0 0.0 0.0 0.0 100.0" Properties=species:S:1:pos:R:3 Energy=-170010.78125 Energy_pyscf=-170006.52261913475 Energy_nn=-170017.046875 pbc="F F F"
C       52.64517044      50.23516828      50.09506762
C       51.03941841      50.10047599      50.25337341
C       50.20976734      49.24327135      50.95546687
C       48.79177190      49.17183684      50.59585422
C       48.12458912      50.14274387      49.73258556
C       48.98369533      50.89794679      49.03557985
C       50.42057640      50.82169146      49.18169789
H       53.17882176      50.61026888      49.30512058
H       53.06306589      50.44662629      51.18391430
H       53.08288534      49.22767935      50.05121376
H       50.61990265      48.58485863      51.74643514
H       48.14793097      48.29862852      51.17364605
H       47.02757048      50.29146828      49.48437561
H       48.50034595      51.50857578      48.41168871
H       50.95392994      51.50730304      48.49913852
