18
Lattice="100.0 0.0 0.0 0.0 100.0 0.0 0.0 0.0 100.0" Properties=species:S:1:pos:R:3 Energy=-241611.421875 Energy_pyscf=-241604.4534646334 Energy_nn=-241611.9375 pbc="F F F"
C       48.95020194      48.50539761      50.31808878
C       47.78052514      48.95001914      49.86168855
C       47.60429067      50.30163398      49.87997277
C       48.68073407      51.17286077      49.80635732
C       49.99321938      50.69473590      50.14394016
C       51.19712711      51.40032250      49.81132993
C       52.41129478      50.85206977      50.04369316
C       52.44183360      49.43421692      50.13472685
C       51.33139264      48.60525472      50.27045673
C       50.09256265      49.19505300      50.14502703
H       49.06348712      47.54659006      50.69690738
H       46.83285435      48.56476103      50.12349826
H       46.53076424      50.62417079      49.72938994
H       48.51343301      52.35247975      49.70119317
H       51.23478561      52.49092350      49.89551621
H       53.21461949      51.45344755      50.02460708
H       53.45776161      48.96717637      50.15037260
H       51.39338641      47.54097455      50.24766856
