18
Lattice="100.0 0.0 0.0 0.0 100.0 0.0 0.0 0.0 100.0" Properties=species:S:1:pos:R:3 Energy=-241658.71875 Energy_pyscf=-241632.49547012197 Energy_nn=-241658.734375 pbc="F F F"
C       48.96983117      48.56437047      50.00734950
C       47.63757593      49.17678715      49.83647684
C       47.47789553      50.56776989      49.75327470
C       48.54593847      51.37138834      49.82151187
C       49.84484750      50.67605590      49.94716779
C       50.95793602      51.52856477      49.79033604
C       52.28571393      50.99843607      49.85345812
C       52.50903361      49.62065543      50.02974857
C       51.43892346      48.74464398      50.24302266
C       50.11196391      49.25018593      50.15180630
H       48.75155602      47.56248783      49.81865474
H       46.76929349      48.55204602      49.59684134
H       46.47161934      51.01627142      49.58310768
H       48.53399309      52.46564759      49.61828681
H       50.76479178      52.60110755      49.49452886
H       53.10093125      51.70421571      49.83214153
H       53.52998703      49.21228053      49.95562240
H       51.67588992      47.72233448      50.56011405
