18
Lattice="100.0 0.0 0.0 0.0 100.0 0.0 0.0 0.0 100.0" Properties=species:S:1:pos:R:3 Energy=-241635.046875 Energy_pyscf=-241623.021065988 Energy_nn=-241635.8125 pbc="F F F"
C       48.88357998      48.41815232      50.17317751
C       47.60864699      49.07710235      50.11694761
C       47.45581889      50.47726056      49.94482399
C       48.55562926      51.29120413      49.74292581
C       49.96645752      50.67490132      49.77832879
C       51.10869373      51.48440827      49.97502533
C       52.34793812      50.98556950      50.26519258
C       52.48670526      49.46154744      50.23135797
C       51.31923114      48.69717583      50.20424546
C       49.98218485      49.27800804      50.02984851
H       48.96323780      47.49612752      50.76868519
H       46.81691939      48.34097050      50.29571937
H       46.53125791      50.91841536      50.32324121
H       48.52569220      52.35103689      49.38138947
H       51.18792292      52.47501275      49.74672854
H       53.33041766      51.54676969      50.33945327
H       53.48951567      49.01637928      50.21619184
H       51.40131274      47.66207015      50.36558859
