18
Lattice="100.0 0.0 0.0 0.0 100.0 0.0 0.0 0.0 100.0" Properties=species:S:1:pos:R:3 Energy=-241622.15625 Energy_pyscf=-241616.22577031938 Energy_nn=-241622.609375 pbc="F F F"
C       48.90768255      48.53650458      49.97145700
C       47.64717746      49.21270706      49.84544261
C       47.42828602      50.52172380      49.72803556
C       48.59110737      51.37491771      49.90317328
C       49.90021435      50.73491612      50.00271560
C       51.04420205      51.46639534      49.83177012
C       52.24538712      51.02661411      50.03614582
C       52.52683642      49.64753345      50.10810341
C       51.41172337      48.81969016      50.21198148
C       50.08244295      49.30374269      50.12305161
H       48.76180936      47.39561642      49.94942187
H       46.86380281      48.60001746      49.70031677
H       46.40893216      50.93566063      49.42152782
H       48.57817151      52.39005375      49.59255967
H       50.78895076      52.53700746      49.52935905
H       53.18493810      51.63212479      49.77279514
H       53.59077805      49.40405246      49.74463707
H       51.36373778      47.76493361      50.47842479
