18
Lattice="100.0 0.0 0.0 0.0 100.0 0.0 0.0 0.0 100.0" Properties=species:S:1:pos:R:3 Energy=-241635.015625 Energy_pyscf=-241633.21010634987 Energy_nn=-241635.0625 pbc="F F F"
C       48.97398658      48.44248352      50.29048448
C       47.75468201      48.98878399      50.25890144
C       47.54042196      50.37232819      49.92509192
C       48.65004785      51.31540358      49.93601775
C       49.96963718      50.69701310      50.10962917
C       51.18820267      51.42397438      50.07880271
C       52.40255112      50.83069828      49.98859414
C       52.54118666      49.44756789      50.13817535
C       51.41315215      48.77827210      50.43355260
C       50.12513533      49.25756401      50.28744379
H       49.28877157      47.42771079      50.34862773
H       46.86558484      48.37056557      50.16616367
H       46.53721453      50.66592688      49.44121643
H       48.43265219      52.34417565      49.53611802
H       51.04385800      52.53475858      50.01973074
H       53.37008342      51.38821686      50.09050725
H       53.52686756      48.79650203      50.23876924
H       51.56574643      47.68096762      50.58001722
