18
Lattice="100.0 0.0 0.0 0.0 100.0 0.0 0.0 0.0 100.0" Properties=species:S:1:pos:R:3 Energy=-241653.234375 Energy_pyscf=-241649.05416349435 Energy_nn=-241652.828125 pbc="F F F"
C       48.86181004      48.38391531      50.24901229
C       47.66731804      49.08387980      50.21093327
C       47.51414936      50.47071752      49.88102662
C       48.64704490      51.27157280      49.74789663
C       49.89299931      50.66401955      49.96233867
C       51.10190081      51.41783318      49.94989116
C       52.39458117      50.88052541      50.12701864
C       52.49070769      49.50568370      50.24341380
C       51.31951812      48.73098192      50.22482719
C       50.01206131      49.21172577      50.11421388
H       48.98420658      47.35632795      50.63497263
H       46.72916082      48.49101458      50.33476448
H       46.54669257      50.97891158      50.13084810
H       48.59965569      52.32998395      49.45629931
H       51.11965373      52.55315054      49.87582921
H       53.19090135      51.63718360      50.14514427
H       53.48489788      49.06536483      50.37465221
H       51.39210755      47.61120483      50.27958534
