18
Lattice="100.0 0.0 0.0 0.0 100.0 0.0 0.0 0.0 100.0" Properties=species:S:1:pos:R:3 Energy=-241615.5625 Energy_pyscf=-241600.96172020945 Energy_nn=-241615.640625 pbc="F F F"
C       48.86238964      48.55561865      50.33291421
C       47.55941828      49.13949250      50.24498733
C       47.61948835      50.53347911      50.03959714
C       48.65889847      51.27295183      49.80655792
C       49.91097965      50.75316073      50.07269132
C       51.05261962      51.55157001      50.05329012
C       52.25085475      50.96275006      50.06984412
C       52.49065701      49.64527942      50.29090974
C       51.32912664      48.80043374      50.45112185
C       50.03571270      49.32208140      50.13265461
H       48.84808906      47.46669449      50.20745724
H       46.89326408      48.31798504      49.88395799
H       46.65085295      50.87744285      49.58485488
H       48.63611718      52.22121022      49.38233821
H       50.98202956      52.63212832      49.80799560
H       53.03454321      51.42890983      49.76905138
H       53.54089609      49.22226083      50.15669723
H       51.50855723      47.71065818      50.32442667
