18
Lattice="100.0 0.0 0.0 0.0 100.0 0.0 0.0 0.0 100.0" Properties=species:S:1:pos:R:3 Energy=-241609.453125 Energy_pyscf=-241572.08235818875 Energy_nn=-241609.921875 pbc="F F F"
C       49.09271791      48.52845363      50.31569623
C       47.82235068      48.96160991      49.93024254
C       47.61908424      50.39485081      49.69866872
C       48.76380371      51.23887156      49.77355864
C       49.98842794      50.70928147      50.05140976
C       51.08193411      51.51545693      49.91472141
C       52.32458946      50.86432388      49.86785496
C       52.60337185      49.60167396      50.10984470
C       51.39762565      48.75825658      50.41436246
C       50.13053437      49.41291911      50.33130490
H       49.34973710      47.40593560      50.32328373
H       46.89519452      48.33600646      49.88417654
H       46.62047092      50.70628165      49.45571671
H       48.60838336      52.34781958      49.46845185
H       51.11158050      52.65935113      49.78304293
H       53.25676060      50.97863965      50.13662912
H       53.60369870      49.01919365      49.85169873
H       51.44692908      47.73740578      50.50540926
