18
Lattice="100.0 0.0 0.0 0.0 100.0 0.0 0.0 0.0 100.0" Properties=species:S:1:pos:R:3 Energy=-241639.96875 Energy_pyscf=-241639.67910578192 Energy_nn=-241640.421875 pbc="F F F"
C       48.84773485      48.46354787      50.30116419
C       47.59670049      49.06032166      50.21732157
C       47.51884680      50.46794770      50.00722434
C       48.63109855      51.27367570      49.82922417
C       49.91477913      50.72441004      49.80090335
C       51.08480356      51.43586395      49.83125283
C       52.31959411      50.96802785      50.24103066
C       52.52673538      49.51391177      50.25075472
C       51.39714066      48.71342325      50.23530996
C       49.98970823      49.31033297      50.11750870
H       48.97155588      47.35808503      50.58813402
H       46.69403621      48.41476281      50.40693356
H       46.49997155      50.97239042      50.02557670
H       48.61638917      52.31011358      49.43176620
H       51.13195293      52.48274090      49.82992643
H       53.23663562      51.54076341      50.29920880
H       53.51268906      49.03832142      50.25059944
H       51.44517679      47.64325327      50.25472145
