18
Lattice="100.0 0.0 0.0 0.0 100.0 0.0 0.0 0.0 100.0" Properties=species:S:1:pos:R:3 Energy=-241609.40625 Energy_pyscf=-241532.4571798645 Energy_nn=-241609.625 pbc="F F F"
C       49.02741412      48.39879837      50.17864456
C       47.68616257      48.91394443      50.01272435
C       47.55346185      50.31254202      49.77721335
C       48.69327003      51.15673092      49.69782288
C       49.97274256      50.57084996      49.90570211
C       51.40941752      51.48248909      49.72642528
C       52.34761483      50.86193852      50.04769867
C       52.55330299      49.36584695      50.13448880
C       51.27828596      48.62948183      50.25579798
C       50.08346347      49.20211503      50.09603193
H       49.04944138      47.28277166      50.35397355
H       46.85154391      48.32185501      50.06549496
H       46.54049811      50.70744013      49.64600852
H       48.52107221      52.20113193      49.52315892
H       51.00348135      52.54871311      49.80284684
H       52.91394496      51.54054929      49.67383884
H       53.45413596      48.80941581      50.30677650
H       51.41291159      47.51136472      50.42170800
