18
Lattice="100.0 0.0 0.0 0.0 100.0 0.0 0.0 0.0 100.0" Properties=species:S:1:pos:R:3 Energy=-241623.5 Energy_pyscf=-241616.4925408044 Energy_nn=-241623.3125 pbc="F F F"
C       48.89001405      48.46929824      50.23186179
C       47.59686003      49.13262367      50.11030718
C       47.48213400      50.46225626      49.96983017
C       48.70581005      51.31035394      49.86418194
C       49.85780375      50.74980324      50.29256702
C       51.01877292      51.54735424      49.99412086
C       52.22702161      50.97629504      49.90336957
C       52.57024030      49.58037699      50.21847279
C       51.39822579      48.80637063      50.31916854
C       50.11256008      49.31923243      50.34716669
H       49.00620929      47.38170528      50.25200037
H       46.76613570      48.42841213      49.90881421
H       46.58045030      50.97740642      49.53112376
H       48.63731585      52.34759192      49.44609137
H       50.88845296      52.49789152      49.84642654
H       53.11049934      51.54030546      49.71190403
H       53.55888267      49.14039609      50.23989684
H       51.48120575      47.74903657      50.44234665
