18
Lattice="100.0 0.0 0.0 0.0 100.0 0.0 0.0 0.0 100.0" Properties=species:S:1:pos:R:3 Energy=-241627.65625 Energy_pyscf=-241621.77967778654 Energy_nn=-241627.796875 pbc="F F F"
C       48.95771420      48.48957192      50.04154662
C       47.69755094      48.96515059      50.02666480
C       47.52663159      50.40178651      49.93627266
C       48.62190611      51.23028801      49.92568447
C       49.96963676      50.69708711      49.87604075
C       51.11733718      51.50475079      49.78603269
C       52.39690559      50.89470117      50.17851978
C       52.46249914      49.49720261      50.40661662
C       51.36205602      48.78511086      50.38942213
C       50.09298098      49.26116047      50.04032152
H       49.09036808      47.49413474      50.22887257
H       46.74469659      48.51224127      50.53277524
H       46.59301331      50.74406011      50.11220920
H       48.60651435      52.26789264      49.68029583
H       51.17947722      52.56163757      49.30341460
H       53.22256934      51.58052273      50.22611774
H       53.34605536      48.89400028      50.75015339
H       51.34265414      47.70709666      50.63320374
