18
Lattice="100.0 0.0 0.0 0.0 100.0 0.0 0.0 0.0 100.0" Properties=species:S:1:pos:R:3 Energy=-241628.40625 Energy_pyscf=-241617.34027730665 Energy_nn=-241628.75 pbc="F F F"
C       48.77526288      48.45308280      50.05952959
C       47.54561732      49.07471002      49.88379021
C       47.43276122      50.38931258      49.86859129
C       48.62287613      51.19288077      49.76524477
C       49.80404659      50.65044594      50.10333270
C       50.99477307      51.56026498      49.97471260
C       52.20804578      50.93248562      50.02584836
C       52.45866958      49.50989809      50.00203613
C       51.28856013      48.74282801      50.24441232
C       50.01924761      49.22967604      50.19214057
H       48.91244489      47.41811426      50.17002076
H       46.75785015      48.49377212      49.58939364
H       46.52344719      50.91129546      49.46937423
H       48.56084720      52.21856286      49.57904835
H       50.82459422      52.59798534      49.93587776
H       53.10523708      51.45098640      49.76642448
H       53.56496010      49.30122149      49.76600777
H       51.41903157      47.69453338      50.49010946
