18
Lattice="100.0 0.0 0.0 0.0 100.0 0.0 0.0 0.0 100.0" Properties=species:S:1:pos:R:3 Energy=-241646.46875 Energy_pyscf=-241643.7750252063 Energy_nn=-241646.359375 pbc="F F F"
C       48.80395533      48.47782585      50.03342200
C       47.55613007      49.04140799      49.80965431
C       47.46909983      50.43460757      49.75233200
C       48.66116637      51.33410616      49.80988213
C       49.87467064      50.74490000      50.00241645
C       51.06350104      51.48999232      49.79198177
C       52.27791619      50.89008339      49.74068575
C       52.39320823      49.55969242      50.03135298
C       51.24964298      48.78599407      50.24894833
C       49.94580149      49.30746774      50.07600750
H       48.97059747      47.42234928      50.06533157
H       46.66643280      48.38172173      49.67635905
H       46.52149996      50.88830883      49.51657222
H       48.53836170      52.41832263      49.64704551
H       50.91574781      52.61446387      49.65495760
H       53.18440553      51.45793933      49.45794047
H       53.39328764      49.02265650      50.12896014
H       51.55078412      47.81341268      50.72536505
