18
Lattice="100.0 0.0 0.0 0.0 100.0 0.0 0.0 0.0 100.0" Properties=species:S:1:pos:R:3 Energy=-241643.515625 Energy_pyscf=-241641.54056281722 Energy_nn=-241643.578125 pbc="F F F"
C       48.89801754      48.48993900      50.17276143
C       47.63273900      49.09276195      50.02175875
C       47.47898697      50.50125405      49.83340385
C       48.58137932      51.28638666      49.83132807
C       49.88161974      50.66282011      50.07567372
C       51.05354364      51.52333407      49.93337019
C       52.29563293      50.96918842      50.01122437
C       52.58188631      49.64593790      50.15793992
C       51.38847590      48.75521865      50.32039231
C       50.10467842      49.24133018      50.12474601
H       48.88750243      47.43452657      50.35163823
H       46.72468230      48.44452882      50.01838372
H       46.47058237      50.95767438      49.70652924
H       48.53283258      52.42161635      49.57679018
H       50.96497204      52.57612584      49.84658972
H       53.23328977      51.48182374      49.80184166
H       53.55652013      49.21575204      50.30132447
H       51.57265747      47.73784643      50.54996989
