18
Lattice="100.0 0.0 0.0 0.0 100.0 0.0 0.0 0.0 100.0" Properties=species:S:1:pos:R:3 Energy=-241641.71875 Energy_pyscf=-241630.75256692086 Energy_nn=-241641.640625 pbc="F F F"
C       48.81535701      48.47800907      50.03059396
C       47.58471812      49.12863279      50.05413381
C       47.38206265      50.40294483      49.84747443
C       48.64281119      51.24881608      49.67456698
C       49.91191454      50.68447549      49.91647648
C       51.05760023      51.50220804      49.74709525
C       52.36038161      50.91807577      49.91255046
C       52.50443981      49.55041485      50.26991695
C       51.39089854      48.72573523      50.35700403
C       50.02049803      49.25140387      50.08968328
H       48.88851996      47.42296890      49.99964858
H       46.61840212      48.70460933      49.99340337
H       46.47105738      50.94959618      49.98775408
H       48.48418081      52.28351273      49.28601971
H       51.00325325      52.57889572      49.59416536
H       53.24034561      51.54197854      49.69956886
H       53.51333606      49.14841654      50.57498998
H       51.49448275      47.67963392      50.54040223
