18
Lattice="100.0 0.0 0.0 0.0 100.0 0.0 0.0 0.0 100.0" Properties=species:S:1:pos:R:3 Energy=-241636.453125 Energy_pyscf=-241635.7955552719 Energy_nn=-241636.921875 pbc="F F F"
C       48.96282625      48.48159350      50.34736069
C       47.73695294      49.01683768      50.20219980
C       47.55570873      50.34723136      49.82953586
C       48.63579795      51.28174666      49.92199596
C       49.95547345      50.70034087      50.13396889
C       51.20847385      51.46034657      50.04946773
C       52.41599110      50.84316783      49.93575989
C       52.53112626      49.39182833      50.12426526
C       51.40725985      48.75110032      50.46808174
C       50.12163745      49.25953672      50.30671617
H       49.30879291      47.44264139      50.35118588
H       46.89949935      48.34316371      50.18957832
H       46.55585044      50.70738191      49.45212507
H       48.42251370      52.32664270      49.54745818
H       51.06339761      52.54414534      50.04232517
H       53.38567488      51.39713818      50.18558636
H       53.51816829      48.81766909      50.11075926
H       51.59343915      47.68542249      50.65056327
