18
Lattice="100.0 0.0 0.0 0.0 100.0 0.0 0.0 0.0 100.0" Properties=species:S:1:pos:R:3 Energy=-241634.625 Energy_pyscf=-241630.67664260088 Energy_nn=-241634.53125 pbc="F F F"
C       48.93883076      48.44920145      50.38272454
C       47.69015500      49.02219459      50.31461822
C       47.50029833      50.33712637      49.89247472
C       48.66693772      51.31113350      49.89566573
C       49.95961381      50.72287785      50.11413507
C       51.18580384      51.44098261      50.10101626
C       52.41245114      50.86641163      50.09353991
C       52.54624494      49.44731709      50.13521643
C       51.40687164      48.77124488      50.36558919
C       50.11189570      49.26834111      50.20903301
H       49.29505473      47.40513507      50.28326355
H       46.83029055      48.31313212      50.31701614
H       46.58710010      50.71016147      49.36588555
H       48.53316215      52.29940093      49.42114648
H       51.05202959      52.53598991      50.16376777
H       53.36324112      51.42454868      50.03304525
H       53.59929640      48.86759231      50.22857002
H       51.55013659      47.63808582      50.54089755
