18
Lattice="100.0 0.0 0.0 0.0 100.0 0.0 0.0 0.0 100.0" Properties=species:S:1:pos:R:3 Energy=-241645.421875 Energy_pyscf=-241637.79614120626 Energy_nn=-241644.96875 pbc="F F F"
C       48.91598019      48.51042923      50.22106785
C       47.72320838      49.15541346      50.15841859
C       47.57727655      50.47044860      49.91856595
C       48.83724615      51.27630004      49.67177224
C       50.09539161      50.62885915      49.74476917
C       51.20162274      51.46545160      49.74990191
C       52.42740175      50.94757437      50.03057435
C       52.55911805      49.56490305      50.20013743
C       51.43780181      48.65343687      50.11108800
C       50.12518848      49.22876560      50.08936146
H       48.97828514      47.42953177      50.29809748
H       46.76109221      48.66721320      50.32898198
H       46.63149818      51.03067594      49.93339377
H       48.70139834      52.32239489      49.54152853
H       51.06201992      52.63123502      49.50480134
H       53.31765113      51.61369479      50.14426583
H       53.55411228      49.12337659      50.33800647
H       51.61317340      47.59987631      49.96079493
