18
Lattice="100.0 0.0 0.0 0.0 100.0 0.0 0.0 0.0 100.0" Properties=species:S:1:pos:R:3 Energy=-241613.328125 Energy_pyscf=-241605.3206088843 Energy_nn=-241613.734375 pbc="F F F"
C       48.89484278      48.59648275      50.10345780
C       47.70738023      49.20377100      50.14848585
C       47.52721245      50.51895936      49.90688179
C       48.68073982      51.28687116      49.88666117
C       49.93224812      50.79621889      50.16175554
C       51.05288512      51.56281167      49.96448237
C       52.23246813      50.95918051      49.92619288
C       52.52786403      49.57965005      50.06228179
C       51.39153082      48.76248118      50.19112553
C       50.08482829      49.33455903      50.30953571
H       48.94017698      47.43387431      50.22939077
H       46.84821889      48.82516739      49.65532447
H       46.48364914      50.89498413      49.61972332
H       48.53287050      52.37407135      49.84083974
H       50.92781640      52.49972408      49.81554204
H       53.14409635      51.57502380      49.85459360
H       53.43989852      49.04915105      50.13134752
H       51.66101270      47.66530683      50.40290310
