18
Lattice="100.0 0.0 0.0 0.0 100.0 0.0 0.0 0.0 100.0" Properties=species:S:1:pos:R:3 Energy=-241620.53125 Energy_pyscf=-241604.61539315202 Energy_nn=-241621.0 pbc="F F F"
C       48.85650196      48.55442981      50.28856388
C       47.55335101      49.15103313      50.16921706
C       47.61719215      50.47592259      49.59850378
C       48.66593689      51.23757121      49.64216511
C       49.98895118      50.73524052      50.03880064
C       51.05340263      51.51965741      50.08290349
C       52.31487611      50.95574944      50.02960403
C       52.52455035      49.65244719      50.26749747
C       51.40997574      48.77879856      50.33842863
C       50.05288280      49.35074816      50.28137703
H       49.01993366      47.46990479      50.21348663
H       46.50141067      48.73921938      49.97770566
H       46.57588969      50.89291536      49.65334548
H       48.67947452      52.32184869      49.73073102
H       50.99219383      52.59795077      49.97542616
H       53.10261430      51.57985715      49.91439302
H       53.41214288      49.12002098      49.91279954
H       51.58499993      47.78933769      50.10203808
