18
Lattice="100.0 0.0 0.0 0.0 100.0 0.0 0.0 0.0 100.0" Properties=species:S:1:pos:R:3 Energy=-241635.75 Energy_pyscf=-241627.33554852562 Energy_nn=-241635.875 pbc="F F F"
C       48.87852801      48.46333958      50.02262831
C       47.66025199      48.98703857      49.99429008
C       47.60359742      50.44106126      50.04933297
C       48.66860390      51.18531691      49.70872636
C       49.97556548      50.68210465      49.82502076
C       51.19353341      51.51540286      49.79333663
C       52.50334225      50.90470398      50.17312772
C       52.48588264      49.55033081      50.49299665
C       51.31047867      48.77478374      50.37213700
C       49.99000505      49.24483395      50.05518283
H       49.02469054      47.37149077      50.27094282
H       46.68930096      48.48238691      50.43380703
H       46.56671630      50.78303832      50.15431116
H       48.59553135      52.30700579      49.81271659
H       51.11678905      52.51314811      49.33803804
H       53.31390411      51.64900295      50.14766528
H       53.38671152      49.01245327      50.77473492
H       51.33153022      47.70970966      50.59050401
