18
Lattice="100.0 0.0 0.0 0.0 100.0 0.0 0.0 0.0 100.0" Properties=species:S:1:pos:R:3 Energy=-241630.578125 Energy_pyscf=-241620.33509316205 Energy_nn=-241631.078125 pbc="F F F"
C       48.81290911      48.52622611      50.15050422
C       47.58738502      49.11595703      49.87107109
C       47.42358804      50.40846693      49.69783546
C       48.57938712      51.22130910      49.74647473
C       49.81321516      50.61680132      50.04974649
C       50.96448764      51.45857105      50.01061127
C       52.15521162      50.95792606      50.05758079
C       52.48795510      49.52840643      50.11737483
C       51.34210257      48.70015732      50.27539016
C       49.97090667      49.20648819      50.24930582
H       48.97479634      47.42031042      50.13476998
H       46.82287852      48.46396062      49.61811449
H       46.46881771      50.98482946      49.47691855
H       48.58457527      52.24345066      49.64066308
H       50.86203149      52.56170570      49.95041770
H       53.05611620      51.46409403      49.65384239
H       53.49736651      49.32019544      49.67012164
H       51.39707196      47.64073638      50.47988015
