18
Lattice="100.0 0.0 0.0 0.0 100.0 0.0 0.0 0.0 100.0" Properties=species:S:1:pos:R:3 Energy=-241613.875 Energy_pyscf=-241612.2747059606 Energy_nn=-241614.296875 pbc="F F F"
C       48.88539313      48.54711982      50.05105927
C       47.70353241      49.12524290      49.81585918
C       47.47277279      50.59015516      49.71744845
C       48.63950568      51.39408480      49.87478894
C       49.89816216      50.81481393      50.01630024
C       51.06244804      51.50290695      49.88813896
C       52.29342474      50.98499259      49.94859786
C       52.57976828      49.61523938      50.11322942
C       51.40738827      48.78221392      50.21856750
C       50.07407331      49.33059461      50.22930721
H       48.60105529      47.48441207      49.98834164
H       46.84901760      48.56132803      49.64619003
H       46.42333492      50.84059930      49.33402595
H       48.48501093      52.53350324      49.72432912
H       50.64962484      52.42528045      49.47788235
H       53.15867359      51.68296437      49.65252896
H       53.67270759      49.31271051      49.92562857
H       51.49875293      47.79433105      50.28033106
