18
Lattice="100.0 0.0 0.0 0.0 100.0 0.0 0.0 0.0 100.0" Properties=species:S:1:pos:R:3 Energy=-241643.90625 Energy_pyscf=-241643.32080319684 Energy_nn=-241644.0 pbc="F F F"
C       48.84480987      48.49668547      50.35018955
C       47.61234814      49.04739732      50.25483225
C       47.47190645      50.43194898      49.98923639
C       48.60538986      51.26948849      49.82178204
C       49.90907483      50.71688737      49.91439935
C       51.09608453      51.46019648      49.89205655
C       52.36656672      50.95450620      50.20374222
C       52.53655297      49.48971801      50.26080714
C       51.39180040      48.69274362      50.21860260
C       50.10216214      49.33040422      50.07773350
H       48.95203412      47.45155211      50.48505129
H       46.67636064      48.43424824      50.38484504
H       46.50597067      50.93334019      50.04606904
H       48.51551386      52.26204378      49.38247789
H       51.23594057      52.53814830      49.77097628
H       53.25225953      51.60795756      50.23065290
H       53.48618686      49.00370661      50.37273674
H       51.42040249      47.52796407      50.22122170
