18
Lattice="100.0 0.0 0.0 0.0 100.0 0.0 0.0 0.0 100.0" Properties=species:S:1:pos:R:3 Energy=-241634.296875 Energy_pyscf=-241633.11699761156 Energy_nn=-241634.703125 pbc="F F F"
C       48.94926225      48.45981732      50.40924736
C       47.72225801      49.02477277      50.24555330
C       47.54990196      50.33171920      49.78202103
C       48.65593936      51.24053436      49.82723320
C       49.92683432      50.67826623      50.11387549
C       51.19985799      51.48651707      50.03991256
C       52.42999393      50.86608563      49.93133552
C       52.53345287      49.40609565      50.13168151
C       51.40102071      48.73112007      50.37974485
C       50.11226080      49.24417754      50.27094925
H       49.29524860      47.41212917      50.33373197
H       46.84591123      48.33674167      50.27877106
H       46.52687947      50.73185010      49.48058218
H       48.46406717      52.35246407      49.51271648
H       51.04811932      52.53379409      50.14430847
H       53.39001830      51.40095749      50.18813699
H       53.56682246      48.81790519      50.17827615
H       51.58770049      47.68636679      50.60669623
