18
Lattice="100.0 0.0 0.0 0.0 100.0 0.0 0.0 0.0 100.0" Properties=species:S:1:pos:R:3 Energy=-241611.40625 Energy_pyscf=-241555.35518206414 Energy_nn=-241611.578125 pbc="F F F"
C       48.89258341      48.49637352      50.16645434
C       47.66183502      49.17967801      50.10738746
C       47.43038331      50.34012723      49.78557116
C       48.71235009      51.30249131      49.91450193
C       49.95945324      50.70927800      50.13159498
C       51.01906354      51.52627284      49.99102646
C       52.31730475      51.01332454      49.98737173
C       52.46152180      49.59191045      50.11912478
C       51.36808601      48.73085674      50.26154823
C       50.05063143      49.28941548      50.32295828
H       48.88627821      47.30116470      50.24996881
H       46.76180089      48.99437256      49.63722979
H       46.53581570      50.99546542      49.77880366
H       48.61539916      52.26079841      49.66909425
H       50.98786891      52.67903935      49.83933670
H       53.21536121      51.66792957      49.82936060
H       53.38255203      49.19455795      50.07864095
H       51.68899779      47.64196466      50.30101471
