18
Lattice="100.0 0.0 0.0 0.0 100.0 0.0 0.0 0.0 100.0" Properties=species:S:1:pos:R:3 Energy=-241620.171875 Energy_pyscf=-241616.2670669069 Energy_nn=-241620.953125 pbc="F F F"
C       48.89021636      48.52752690      50.08394308
C       47.67004260      49.06835989      49.89181862
C       47.44938594      50.63629050      49.77236175
C       48.57817546      51.37853616      49.90299293
C       49.87966070      50.75199939      49.93037445
C       51.02887489      51.56617830      49.75406786
C       52.28857004      50.99434853      49.96965816
C       52.52888387      49.62775576      49.97311044
C       51.44901587      48.74652662      50.22388214
C       50.12633588      49.31668711      50.16741617
H       48.79992970      47.55703818      49.96167040
H       46.73276474      48.51493359      49.56776548
H       46.49056013      51.00929325      49.39227656
H       48.39104987      52.50802640      49.65002251
H       50.71638634      52.58288776      49.42460845
H       53.15886581      51.78064100      49.92685500
H       53.55155706      49.10932205      49.89129953
H       51.64093887      47.64228213      50.43463260
