18
Lattice="100.0 0.0 0.0 0.0 100.0 0.0 0.0 0.0 100.0" Properties=species:S:1:pos:R:3 Energy=-241609.71875 Energy_pyscf=-241579.64174464592 Energy_nn=-241609.984375 pbc="F F F"
C       49.00194978      48.48425086      50.31028593
C       47.78605707      49.11405444      49.94997951
C       47.47497531      50.41623361      49.78895499
C       48.66428489      51.31628899      49.99891189
C       49.92209823      50.66772426      50.24839804
C       51.00417980      51.51697339      50.06263105
C       52.28979904      51.00201525      49.90713139
C       52.51864253      49.59646838      50.13424688
C       51.35198872      48.78149961      50.31959588
C       50.09721653      49.34917497      50.40640203
H       48.94307225      47.35571003      50.22634178
H       46.86886950      49.00536077      49.49098559
H       46.43017663      50.99884543      49.77009185
H       48.71379332      52.31474444      49.75727019
H       50.77421208      52.59382471      49.72158054
H       53.22387933      51.71316365      49.75104650
H       53.53804560      49.10701704      50.03555278
H       51.38028598      47.62667498      50.28966830
