18
Lattice="100.0 0.0 0.0 0.0 100.0 0.0 0.0 0.0 100.0" Properties=species:S:1:pos:R:3 Energy=-241649.84375 Energy_pyscf=-241646.95664731832 Energy_nn=-241649.84375 pbc="F F F"
C       48.98542104      48.45169932      50.30908302
C       47.72246169      48.97376451      50.13533346
C       47.54394811      50.38207998      49.82727149
C       48.66140827      51.24727641      49.91029049
C       49.96521917      50.69405995      50.05416365
C       51.20370330      51.46101402      50.09323717
C       52.43335423      50.85824189      50.09583729
C       52.56163801      49.48466600      50.26000048
C       51.38990340      48.68385755      50.36524771
C       50.10686744      49.26967733      50.31534655
H       49.23184627      47.33988756      50.36297148
H       46.84285604      48.37812397      50.30319278
H       46.55366285      50.75238011      49.55478042
H       48.50698912      52.29868896      49.41070206
H       51.07663762      52.52279003      50.15519766
H       53.33495242      51.42643106      49.99379846
H       53.50166563      48.89263166      50.22937744
H       51.59051167      47.64678053      50.53963235
