18
Lattice="100.0 0.0 0.0 0.0 100.0 0.0 0.0 0.0 100.0" Properties=species:S:1:pos:R:3 Energy=-241647.046875 Energy_pyscf=-241643.36879815484 Energy_nn=-241647.21875 pbc="F F F"
C       48.89138421      48.53099806      50.05606310
C       47.63991418      49.15572379      49.91955904
C       47.43335439      50.51726029      49.77128117
C       48.56720437      51.38015406      49.80224796
C       49.87441331      50.75308443      49.94557795
C       51.01471395      51.52927027      49.83180684
C       52.30470941      51.02155509      49.97041499
C       52.53723577      49.66129015      50.09411192
C       51.34952775      48.77851445      50.27647471
C       50.04309853      49.30623098      50.13368631
H       48.89500279      47.40801207      49.90503902
H       46.64566724      48.63926839      49.82534250
H       46.39882012      50.94320678      49.54338534
H       48.42793546      52.46591880      49.60895451
H       50.79261494      52.63089710      49.58583583
H       53.18156193      51.71883339      49.93247973
H       53.47293425      49.18851528      49.94791168
H       51.47628659      47.73811498      50.45916244
