18
Lattice="100.0 0.0 0.0 0.0 100.0 0.0 0.0 0.0 100.0" Properties=species:S:1:pos:R:3 Energy=-241653.34375 Energy_pyscf=-241647.94670994053 Energy_nn=-241653.390625 pbc="F F F"
C       48.86822467      48.50076878      50.00963431
C       47.65978841      49.13225239      50.14208480
C       47.62942813      50.52532626      49.94658239
C       48.81902944      51.25063740      49.76308465
C       50.05729348      50.64019717      49.79557524
C       51.19164293      51.52805003      49.77364899
C       52.43948097      50.94559751      50.01059590
C       52.53420088      49.56803278      50.12990980
C       51.42327390      48.65728251      50.13720468
C       50.15535713      49.19532943      49.89989997
H       48.96898919      47.46768034      50.29154768
H       46.74014347      48.64349480      50.44215914
H       46.67597895      51.01449358      49.89921924
H       48.88127652      52.30210424      49.52384100
H       51.06428774      52.59671223      49.54275226
H       53.25691762      51.62906788      50.17452416
H       53.54591783      49.17744870      50.23599421
H       51.64156348      47.58836018      50.24803228
