18
Lattice="100.0 0.0 0.0 0.0 100.0 0.0 0.0 0.0 100.0" Properties=species:S:1:pos:R:3 Energy=-241632.578125 Energy_pyscf=-241616.86114550597 Energy_nn=-241632.375 pbc="F F F"
C       49.07249506      48.45842961      49.98805985
C       47.71588277      48.98680072      50.00407125
C       47.61087316      50.43526477      49.91535155
C       48.67768283      51.23233101      49.66721603
C       50.08311492      50.62583164      49.64255192
C       51.21555603      51.47548910      49.77916226
C       52.51354678      50.88371354      49.92957529
C       52.56399139      49.48726388      50.06535605
C       51.44396824      48.65942149      50.29259614
C       50.13038876      49.20275672      50.00856545
H       49.12421448      47.51859531      50.27276545
H       46.86312275      48.33843062      49.92555915
H       46.58060359      50.82961386      49.98240040
H       48.63573547      52.24513603      49.27222843
H       51.17280940      52.57309781      49.88792078
H       53.39526920      51.44472112      50.31368711
H       53.47686998      48.91058392      50.29680662
H       51.45514132      47.69199656      50.73917721
