18
Lattice="100.0 0.0 0.0 0.0 100.0 0.0 0.0 0.0 100.0" Properties=species:S:1:pos:R:3 Energy=-241614.109375 Energy_pyscf=-241611.4520415145 Energy_nn=-241614.1875 pbc="F F F"
C       48.83927818      48.61417396      50.36738385
C       47.61546592      49.16946200      50.19684102
C       47.49874687      50.62342133      49.88616830
C       48.64575595      51.30003301      49.95833059
C       49.91006231      50.81357054      50.23263604
C       51.06028759      51.54834445      49.92054652
C       52.27110811      50.96131538      50.01285652
C       52.43143074      49.64848822      50.14848567
C       51.42919847      48.77034584      50.49876198
C       50.08369815      49.37004905      50.44841023
H       48.75916377      47.48574741      50.62407011
H       46.67848306      48.55191033      50.02167570
H       46.58334893      51.05900824      49.35245142
H       48.44498105      52.21239029      49.68011788
H       51.07044098      52.71960617      49.74084653
H       53.08279476      51.68363930      49.64301106
H       53.40715724      49.17653214      49.80942941
H       51.67663141      47.71149821      50.93078373
