18
Lattice="100.0 0.0 0.0 0.0 100.0 0.0 0.0 0.0 100.0" Properties=species:S:1:pos:R:3 Energy=-241624.015625 Energy_pyscf=-241613.65811861373 Energy_nn=-241624.359375 pbc="F F F"
C       48.97478367      48.44154006      50.33674156
C       47.78228096      49.01376642      50.02962746
C       47.63054109      50.39355409      49.66852179
C       48.67033271      51.21553649      49.85689968
C       49.96797184      50.65143395      50.11751201
C       51.19057195      51.34033775      49.96999846
C       52.39056848      50.78772378      50.04830538
C       52.66008807      49.46071144      50.17232437
C       51.40252546      48.62987031      50.43387221
C       50.14695799      49.23783068      50.33118049
H       49.25456205      47.35909821      50.30604793
H       46.89699052      48.52786545      50.07934760
H       46.55497591      50.76780073      49.58017414
H       48.38443541      52.31653176      49.86597756
H       50.92456298      52.42281562      49.71287570
H       53.21349731      51.48328406      50.01640033
H       53.47309338      48.84817006      49.64004128
H       51.46809931      47.58235492      50.41251161
