18
Lattice="100.0 0.0 0.0 0.0 100.0 0.0 0.0 0.0 100.0" Properties=species:S:1:pos:R:3 Energy=-241628.703125 Energy_pyscf=-241628.27441436553 Energy_nn=-241628.25 pbc="F F F"
C       48.89882008      48.40343298      50.22802977
C       47.60559418      48.91247914      50.30490955
C       47.54241602      50.39889134      50.03002631
C       48.64496510      51.25707844      49.84534912
C       49.96724129      50.70747302      49.92825309
C       51.19489872      51.45157248      49.99238219
C       52.38612263      50.84534076      50.22558680
C       52.47598501      49.46309041      50.33910373
C       51.36465626      48.74655279      50.09052131
C       50.08540658      49.27657273      50.10003489
H       49.21864122      47.40571024      50.18307324
H       46.73226314      48.27384963      50.12072962
H       46.53600150      50.91473680      49.97594887
H       48.38943456      52.26141202      49.31859745
H       50.94058097      52.56819118      49.97747613
H       53.42510954      51.37926660      50.40510846
H       53.48808827      48.98553100      50.68876399
H       51.46768463      47.59516151      50.28137072
