18
Lattice="100.0 0.0 0.0 0.0 100.0 0.0 0.0 0.0 100.0" Properties=species:S:1:pos:R:3 Energy=-241636.359375 Energy_pyscf=-241634.64777792752 Energy_nn=-241636.78125 pbc="F F F"
C       48.90225128      48.54056853      50.05405735
C       47.70649228      49.14493437      50.09661640
C       47.57419469      50.52875706      49.91316958
C       48.69884180      51.19398691      49.63390512
C       49.99708626      50.69763012      49.77930089
C       51.15589168      51.50489878      49.76178384
C       52.35664268      50.99765296      50.21764459
C       52.58997585      49.49827734      50.16213364
C       51.47845831      48.67433119      50.14805209
C       50.15937711      49.25288253      50.01559727
H       49.05803835      47.48390088      50.34223823
H       46.74473418      48.62084450      50.39415228
H       46.59456152      51.08311928      50.00468430
H       48.83773790      52.30311323      49.65553106
H       51.11107363      52.58004690      49.30516612
H       53.29615069      51.57751481      50.20111163
H       53.60826133      49.04160467      50.21026212
H       51.69466904      47.58861262      50.06857501
