18
Lattice="100.0 0.0 0.0 0.0 100.0 0.0 0.0 0.0 100.0" Properties=species:S:1:pos:R:3 Energy=-241653.5625 Energy_pyscf=-241645.18602356256 Energy_nn=-241653.484375 pbc="F F F"
C       48.80853691      48.43575324      50.19525238
C       47.51387116      49.00241170      49.98792777
C       47.46206691      50.39959638      49.72830614
C       48.61111823      51.11641822      49.72481294
C       49.88367085      50.67875833      50.00622674
C       51.03215995      51.48976702      49.86829964
C       52.27338655      50.89044263      49.99719541
C       52.44885351      49.50409312      50.13505457
C       51.32466541      48.64684412      50.28467933
C       50.03093373      49.22176413      50.11011620
H       48.76282875      47.41810298      50.58441031
H       46.59941923      48.36678978      50.17523551
H       46.50127396      50.71997076      49.47638662
H       48.59208248      52.17703985      49.56473126
H       50.92646968      52.64174078      49.75802932
H       53.16418680      51.54599631      50.02578394
H       53.41497461      49.04831520      49.97367090
H       51.43768496      47.55555557      50.29287823
