18
Lattice="100.0 0.0 0.0 0.0 100.0 0.0 0.0 0.0 100.0" Properties=species:S:1:pos:R:3 Energy=-241643.6875 Energy_pyscf=-241639.49445684894 Energy_nn=-241643.046875 pbc="F F F"
C       48.85199019      48.47949666      50.20104865
C       47.65929718      49.10333709      50.02034046
C       47.50472226      50.47733504      49.82584736
C       48.64358914      51.28934495      49.78796522
C       49.90047873      50.67448333      50.05529582
C       51.01870651      51.48677858      49.93930849
C       52.26911842      50.96024564      49.99840735
C       52.56952522      49.66567718      50.15911360
C       51.38001895      48.76252547      50.37013409
C       50.08979422      49.25299815      50.14849217
H       48.91347168      47.40113179      50.30835734
H       46.73639798      48.50614724      50.09260704
H       46.53986209      50.94223180      49.64733681
H       48.54584556      52.39382646      49.61154980
H       50.92028438      52.56188120      49.86672813
H       53.21148290      51.42555003      49.81029118
H       53.57861969      49.26344616      50.24837008
H       51.56044899      47.74661028      50.53086699
