18
Lattice="100.0 0.0 0.0 0.0 100.0 0.0 0.0 0.0 100.0" Properties=species:S:1:pos:R:3 Energy=-241634.671875 Energy_pyscf=-241617.37890697006 Energy_nn=-241634.953125 pbc="F F F"
C       48.76185516      48.46275329      49.93673424
C       47.56532726      49.00155782      49.89969782
C       47.46576169      50.43117612      49.77716735
C       48.65463079      51.13527781      49.83544640
C       49.85268827      50.69763073      50.05398157
C       50.96063680      51.49162510      49.98632773
C       52.23618710      50.93048713      49.82298476
C       52.41237343      49.52259327      50.04032423
C       51.34407201      48.70192049      50.37160833
C       49.92067066      49.27091743      50.23995651
H       48.92636037      47.44158870      50.12172161
H       46.69250323      48.49309975      49.61495175
H       46.59199554      50.95325105      49.55825016
H       48.54858911      52.14528271      49.49493346
H       50.92165327      52.59563409      50.05794123
H       53.09594702      51.67492116      49.72388667
H       53.47975757      49.22071341      49.80072897
H       51.39914911      47.65951745      50.53851608
