18
Lattice="100.0 0.0 0.0 0.0 100.0 0.0 0.0 0.0 100.0" Properties=species:S:1:pos:R:3 Energy=-241646.3125 Energy_pyscf=-241645.44018168232 Energy_nn=-241646.09375 pbc="F F F"
C       48.78903786      48.42116689      50.16344259
C       47.50684024      48.99304769      50.01532631
C       47.38669913      50.38737854      49.79906301
C       48.58098916      51.11078738      49.64798126
C       49.86048247      50.59544579      49.96696498
C       51.00763729      51.41520008      49.90472037
C       52.28418701      50.90599093      49.97600306
C       52.50425959      49.54417355      50.09325583
C       51.35454856      48.61357225      50.28597668
C       50.03798709      49.16176505      50.12634896
H       48.74970009      47.34642368      50.54378599
H       46.58783084      48.40174981      50.15729433
H       46.42410099      50.82427565      49.51836487
H       48.63531261      52.26242586      49.56083961
H       51.00897664      52.52224446      49.78830243
H       53.10894544      51.67333749      49.94683158
H       53.46589365      49.07857595      50.05411968
H       51.48295511      47.52948894      50.30907310
