18
Lattice="100.0 0.0 0.0 0.0 100.0 0.0 0.0 0.0 100.0" Properties=species:S:1:pos:R:3 Energy=-241629.484375 Energy_pyscf=-241619.92028857593 Energy_nn=-241629.96875 pbc="F F F"
C       48.96668951      48.56646255      50.10273162
C       47.64210069      49.15673485      50.12387955
C       47.44958186      50.47661835      49.71570559
C       48.58727880      51.28978203      49.56087366
C       49.93403384      50.86920317      49.78569032
C       51.14352574      51.58675003      49.64482188
C       52.38572332      51.05752206      50.01574360
C       52.53839014      49.57438185      50.35282589
C       51.41494080      48.79362815      49.98303972
C       50.19458681      49.42149268      49.98484211
H       49.27003855      47.51436559      50.19375310
H       46.86247866      48.50752258      50.60290910
H       46.45468218      50.88588527      49.45986018
H       48.36890802      52.49520969      49.39163151
H       51.02324563      52.60240922      49.38236223
H       53.28290060      51.60429816      50.24795198
H       53.51981305      49.18687155      50.28534405
H       51.51811315      47.71807517      50.03381922
