18
Lattice="100.0 0.0 0.0 0.0 100.0 0.0 0.0 0.0 100.0" Properties=species:S:1:pos:R:3 Energy=-241615.171875 Energy_pyscf=-241606.76248925077 Energy_nn=-241615.6875 pbc="F F F"
C       48.83754598      48.54255912      49.99756125
C       47.50991302      49.10041993      49.95305163
C       47.61493321      50.45462440      49.80685490
C       48.60230348      51.27628900      49.75697520
C       49.86198344      50.75602389      49.97319520
C       50.98793664      51.53595891      49.78876389
C       52.23911044      50.95150591      49.81333985
C       52.40286042      49.56587047      50.01453934
C       51.30810748      48.77099495      50.22073015
C       50.00634711      49.30740056      50.21792790
H       48.89220047      47.49017666      50.12153407
H       46.59703765      48.53341749      49.72583583
H       46.72316432      50.75946011      49.29789916
H       48.52768989      52.22966690      49.70458611
H       50.82941136      52.58593259      49.60858196
H       53.18025355      51.49376564      49.50324042
H       53.28779844      48.95149161      50.17771540
H       51.65948784      47.70935534      50.49906024
