18
Lattice="100.0 0.0 0.0 0.0 100.0 0.0 0.0 0.0 100.0" Properties=species:S:1:pos:R:3 Energy=-241651.953125 Energy_pyscf=-241643.58071682364 Energy_nn=-241651.75 pbc="F F F"
C       48.92458232      48.48878406      50.16286298
C       47.70892807      49.13528115      50.24459443
C       47.41059821      50.53473132      49.97472105
C       48.55509718      51.25217915      49.75828125
C       49.86970105      50.70878227      49.93151062
C       51.13383190      51.43764374      49.89654649
C       52.40638547      50.86501738      50.15247841
C       52.52170737      49.45023436      50.18839434
C       51.36735591      48.68234567      50.26542380
C       50.10126262      49.27363025      50.06296613
H       49.04323766      47.46511645      50.61131114
H       46.76801875      48.53467176      50.36697636
H       46.37584067      50.80158311      49.98789544
H       48.48045275      52.33424184      49.57582235
H       51.14679834      52.57382267      49.82334224
H       53.26125980      51.52925458      50.11464066
H       53.47838787      48.99674243      50.49997435
H       51.42115654      47.57859711      50.25590486
