18
Lattice="100.0 0.0 0.0 0.0 100.0 0.0 0.0 0.0 100.0" Properties=species:S:1:pos:R:3 Energy=-241650.640625 Energy_pyscf=-241645.50706755783 Energy_nn=-241650.640625 pbc="F F F"
C       48.85027858      48.63148204      50.26767760
C       47.57462366      49.23314979      50.01363263
C       47.41684834      50.61991331      49.74514314
C       48.59260805      51.36078625      49.90714873
C       49.89990639      50.83626960      50.03150703
C       51.04626185      51.63651199      49.89717861
C       52.27686360      51.08554649      50.03363607
C       52.54965453      49.68710403      50.21136284
C       51.42575329      48.88278179      50.41512471
C       50.09400947      49.41413056      50.22659775
H       48.83619022      47.49269192      50.33059383
H       46.61587655      48.68167661      50.00558005
H       46.41815799      51.08557076      49.78862045
H       48.65863710      52.43857612      49.53914356
H       51.04082649      52.69772073      49.67589812
H       53.12395352      51.83286146      49.92188350
H       53.52421518      49.27432766      50.26851743
H       51.53077791      47.78842274      50.43910181
