18
Lattice="100.0 0.0 0.0 0.0 100.0 0.0 0.0 0.0 100.0" Properties=species:S:1:pos:R:3 Energy=-241623.65625 Energy_pyscf=-241611.50536504993 Energy_nn=-241624.09375 pbc="F F F"
C       48.98743645      48.56284881      50.13941183
C       47.70427370      49.17589589      50.15934061
C       47.43997505      50.53584650      49.72499444
C       48.47954647      51.33969034      49.40749857
C       49.92461210      50.87203309      49.70759481
C       51.13239486      51.56580608      49.65503525
C       52.38349488      51.02275956      50.12384402
C       52.52590700      49.57993855      50.33112015
C       51.36895061      48.78693620      49.96538524
C       50.18695497      49.43511385      49.91354235
H       49.38396633      47.49465438      50.41335240
H       46.75118262      48.53335964      50.55516922
H       46.42914631      50.88329664      49.50458327
H       48.40188251      52.41107570      49.40137297
H       51.09447522      52.59138883      49.44829280
H       53.27615797      51.57698195      50.26159507
H       53.50264851      49.18779308      50.30529120
H       51.55466853      47.75878934      49.83488533
