18
Lattice="100.0 0.0 0.0 0.0 100.0 0.0 0.0 0.0 100.0" Properties=species:S:1:pos:R:3 Energy=-241653.40625 Energy_pyscf=-241644.7150855049 Energy_nn=-241653.359375 pbc="F F F"
C       48.92303517      48.55427028      50.04071479
C       47.70221909      49.20702923      50.19835423
C       47.60924711      50.55670234      49.90688314
C       48.77461597      51.28700451      49.72024940
C       50.02147700      50.63623299      49.75982654
C       51.16309808      51.44945157      49.72914295
C       52.38061127      50.93554275      50.04567393
C       52.53077449      49.50640915      50.18524475
C       51.46877021      48.61971020      50.26916566
C       50.19139570      49.21382081      49.94655833
H       49.05644128      47.48038962      50.19324082
H       46.79798803      48.67393425      50.49739791
H       46.63885281      51.03368001      49.93531819
H       48.78408207      52.35836176      49.46190234
H       50.95139333      52.50985863      49.53866622
H       53.24577219      51.56694375      50.22029050
H       53.55466086      49.16720944      50.26767888
H       51.70197223      47.53617299      50.07138999
