18
Lattice="100.0 0.0 0.0 0.0 100.0 0.0 0.0 0.0 100.0" Properties=species:S:1:pos:R:3 Energy=-241611.25 Energy_pyscf=-241611.75376778183 Energy_nn=-241612.09375 pbc="F F F"
C       48.83016497      48.54624016      49.83960423
C       47.61863157      49.03587860      49.95175269
C       47.53878531      50.44434449      49.81899463
C       48.59911872      51.20942022      49.39448393
C       49.91594579      50.71978774      49.45227658
C       50.98822540      51.58714814      49.77520426
C       52.22696881      50.96345330      50.07270138
C       52.36290342      49.60606942      50.23021535
C       51.23779356      48.67290725      50.08409325
C       49.97263824      49.28865791      49.84627581
H       48.58262007      47.54320566      50.18642522
H       46.71152130      48.33317316      50.17437978
H       46.61965169      51.06349596      50.04043344
H       48.37545055      52.31358012      49.31571315
H       50.72767580      52.59176052      49.36147692
H       53.13902579      51.55835325      49.99668749
H       53.38295147      49.32944940      50.52549659
H       51.42219223      47.56009165      50.15060037
