18
Lattice="100.0 0.0 0.0 0.0 100.0 0.0 0.0 0.0 100.0" Properties=species:S:1:pos:R:3 Energy=-241636.71875 Energy_pyscf=-241629.7845742195 Energy_nn=-241636.984375 pbc="F F F"
C       48.96288259      48.49423093      50.02419089
C       47.68625719      49.04549725      49.98439165
C       47.52258750      50.46838066      49.85452377
C       48.73955356      51.27412265      49.77996063
C       50.16428383      50.69513285      49.92623449
C       51.28994616      51.51589222      49.76345771
C       52.50687131      50.96349076      49.74110005
C       52.57108608      49.62487725      50.34389945
C       51.48371989      48.82737778      50.33344916
C       50.18766587      49.23118662      49.99625611
H       49.01821643      47.38444056      50.03318964
H       46.81338010      48.37491615      50.10011983
H       46.59330173      51.04609704      49.75875532
H       48.80523731      52.34676684      49.87439137
H       51.15460786      52.57876950      49.39290484
H       53.46472705      51.50443217      49.66643971
H       53.62995437      49.22588432      50.36603174
H       51.63028878      47.71953298      50.53194551
