18
Lattice="100.0 0.0 0.0 0.0 100.0 0.0 0.0 0.0 100.0" Properties=species:S:1:pos:R:3 Energy=-241625.390625 Energy_pyscf=-241619.83623122398 Energy_nn=-241625.546875 pbc="F F F"
C       48.94836226      48.42229142      50.26643974
C       47.64183252      49.01000534      50.17347216
C       47.57075924      50.34715320      49.74241122
C       48.66334082      51.16039369      49.85381590
C       49.96738635      50.71519498      50.15800739
C       51.14326919      51.49520853      49.98420963
C       52.40933392      50.91617655      50.09210947
C       52.55895840      49.38837063      50.17900197
C       51.44044134      48.72551828      50.43751580
C       50.16395768      49.29996360      50.30482521
H       49.30540792      47.38435667      50.33604770
H       46.76573621      48.31595387      50.34771922
H       46.59712846      50.81836633      49.45038751
H       48.39625923      52.34312456      49.56953118
H       51.11689686      52.46830756      50.16118474
H       53.41709200      51.38600738      50.01302415
H       53.51814181      48.90424131      50.12279059
H       51.61826668      47.67564992      50.69131821
